 Entering Gaussian System, Link 0=g09
 Input=perylene3_exct_wB97XD-LANL2DZ_geom_BLYP-LANL2DZ.gjf
 Output=perylene3_exct_wB97XD-LANL2DZ_geom_BLYP-LANL2DZ.log
 Initial command:
 /shared/software/g09/l1.exe "/home/slamav/QCHsoftware/g09/SCRATCH/Gau-9349.inp" -scrdir="/home/slamav/QCHsoftware/g09/SCRATCH/"
 Entering Link 1 = /shared/software/g09/l1.exe PID=      9350.
  
 Copyright (c) 1988,1990,1992,1993,1995,1998,2003,2009,2013,
            Gaussian, Inc.  All Rights Reserved.
  
 This is part of the Gaussian(R) 09 program.  It is based on
 the Gaussian(R) 03 system (copyright 2003, Gaussian, Inc.),
 the Gaussian(R) 98 system (copyright 1998, Gaussian, Inc.),
 the Gaussian(R) 94 system (copyright 1995, Gaussian, Inc.),
 the Gaussian 92(TM) system (copyright 1992, Gaussian, Inc.),
 the Gaussian 90(TM) system (copyright 1990, Gaussian, Inc.),
 the Gaussian 88(TM) system (copyright 1988, Gaussian, Inc.),
 the Gaussian 86(TM) system (copyright 1986, Carnegie Mellon
 University), and the Gaussian 82(TM) system (copyright 1983,
 Carnegie Mellon University). Gaussian is a federally registered
 trademark of Gaussian, Inc.
  
 This software contains proprietary and confidential information,
 including trade secrets, belonging to Gaussian, Inc.
  
 This software is provided under written license and may be
 used, copied, transmitted, or stored only in accord with that
 written license.
  
 The following legend is applicable only to US Government
 contracts under FAR:
  
                    RESTRICTED RIGHTS LEGEND
  
 Use, reproduction and disclosure by the US Government is
 subject to restrictions as set forth in subparagraphs (a)
 and (c) of the Commercial Computer Software - Restricted
 Rights clause in FAR 52.227-19.
  
 Gaussian, Inc.
 340 Quinnipiac St., Bldg. 40, Wallingford CT 06492
  
  
 ---------------------------------------------------------------
 Warning -- This program may not be used in any manner that
 competes with the business of Gaussian, Inc. or will provide
 assistance to any competitor of Gaussian, Inc.  The licensee
 of this program is prohibited from giving any competitor of
 Gaussian, Inc. access to this program.  By using this program,
 the user acknowledges that Gaussian, Inc. is engaged in the
 business of creating and licensing software in the field of
 computational chemistry and represents and warrants to the
 licensee that it is not a competitor of Gaussian, Inc. and that
 it will not use this program in any manner prohibited above.
 ---------------------------------------------------------------
  

 Cite this work as:
 Gaussian 09, Revision D.01,
 M. J. Frisch, G. W. Trucks, H. B. Schlegel, G. E. Scuseria, 
 M. A. Robb, J. R. Cheeseman, G. Scalmani, V. Barone, B. Mennucci, 
 G. A. Petersson, H. Nakatsuji, M. Caricato, X. Li, H. P. Hratchian, 
 A. F. Izmaylov, J. Bloino, G. Zheng, J. L. Sonnenberg, M. Hada, 
 M. Ehara, K. Toyota, R. Fukuda, J. Hasegawa, M. Ishida, T. Nakajima, 
 Y. Honda, O. Kitao, H. Nakai, T. Vreven, J. A. Montgomery, Jr., 
 J. E. Peralta, F. Ogliaro, M. Bearpark, J. J. Heyd, E. Brothers, 
 K. N. Kudin, V. N. Staroverov, T. Keith, R. Kobayashi, J. Normand, 
 K. Raghavachari, A. Rendell, J. C. Burant, S. S. Iyengar, J. Tomasi, 
 M. Cossi, N. Rega, J. M. Millam, M. Klene, J. E. Knox, J. B. Cross, 
 V. Bakken, C. Adamo, J. Jaramillo, R. Gomperts, R. E. Stratmann, 
 O. Yazyev, A. J. Austin, R. Cammi, C. Pomelli, J. W. Ochterski, 
 R. L. Martin, K. Morokuma, V. G. Zakrzewski, G. A. Voth, 
 P. Salvador, J. J. Dannenberg, S. Dapprich, A. D. Daniels, 
 O. Farkas, J. B. Foresman, J. V. Ortiz, J. Cioslowski, 
 and D. J. Fox, Gaussian, Inc., Wallingford CT, 2013.
 
 ******************************************
 Gaussian 09:  EM64L-G09RevD.01 24-Apr-2013
                30-May-2017 
 ******************************************
 %NProcShared=12
 Will use up to   12 processors via shared memory.
 %mem=20GB
 %oldchk=perylene3_opt_BLYP-LANL2DZ.chk
 %chk=perylene3_exct_wB97XD-LANL2DZ_geom_BLYP-LANL2DZ.chk
 Copying data from "perylene3_opt_BLYP-LANL2DZ.chk" to current chk file "perylene3_exct_wB97XD-LANL2DZ_geom_BLYP-LANL2DZ.
 chk".
 ----------------------------------------------------------------------
 #p wB97XD/LANL2DZ TD=(Singlets,NStates=10,Root=1) DENSITY scf=(Tight,M
 axCycle=400) Geom=Checkpoint Guess=read NoSymm GFPrint GFInput IOp(6/7
 =3) IOp(9/40=3)
 ----------------------------------------------------------------------
 1/29=2,30=1,38=1/1;
 2/12=2,15=1,40=1/2;
 3/5=6,6=3,11=9,14=-4,16=1,24=110,25=1,30=1,71=1,74=-58,116=-2/1,2,8,3;
 4/5=1/1;
 5/5=2,7=400,32=2,38=6/2;
 8/6=1,10=1,107=1,108=10/1;
 9/8=1,15=1,40=3,41=10,42=1,48=1,70=2/14;
 10/5=4,13=10,31=1/2;
 6/7=3,8=2,9=2,10=2,22=-1/1;
 99/5=1,9=1/99;
 Leave Link    1 at Tue May 30 17:14:30 2017, MaxMem=  2684354560 cpu:         0.7
 (Enter /shared/software/g09/l101.exe)
 -------------------------------------------
 Extended perylene excited state calculation
 -------------------------------------------
 Structure from the checkpoint file:  "perylene3_exct_wB97XD-LANL2DZ_geom_BLYP-LANL2DZ.chk"
 Charge =  0 Multiplicity = 1
 Redundant internal coordinates found in file.
 C,0,0.,0.,3.6549124837
 C,0,0.,1.2620457709,2.9401071996
 C,0,0.,1.2566883612,1.4562573999
 C,0,0.,0.,0.7304761649
 C,0,0.,-1.2566883612,1.4562573999
 C,0,0.,-1.2620457709,2.9401071996
 C,0,0.,2.4584006985,0.7048515234
 C,0,0.,0.,-0.7304761649
 C,0,0.,1.2566883612,-1.4562573999
 C,0,0.,2.4584006985,-0.7048515234
 C,0,0.,1.2620457709,-2.9401071996
 C,0,0.,0.,-3.6549124837
 C,0,0.,-1.2620457709,-2.9401071996
 C,0,0.,-1.2566883612,-1.4562573999
 C,0,0.,-2.4584006985,-0.7048515234
 C,0,0.,-2.4584006985,0.7048515234
 C,0,0.,0.,-5.1109191624
 C,0,0.,2.4651619482,-3.6924730627
 C,0,0.,-2.4651619482,-3.6924730627
 C,0,0.,2.4651619482,3.6924730627
 C,0,0.,0.,5.1109191624
 C,0,0.,-2.4651619482,3.6924730627
 C,0,0.,2.4602840398,-5.1165835048
 C,0,0.,-1.2491220825,-5.8216488665
 C,0,0.,-2.4602840398,-5.1165835048
 C,0,0.,2.4602840398,5.1165835048
 C,0,0.,1.2491220825,5.8216488665
 C,0,0.,-2.4602840398,5.1165835048
 C,0,0.,1.2491220825,-5.8216488665
 C,0,0.,-1.2491220825,5.8216488665
 H,0,0.,1.2376951134,-6.9171520753
 H,0,0.,-1.2376951134,-6.9171520753
 H,0,0.,1.2376951134,6.9171520753
 H,0,0.,-1.2376951134,6.9171520753
 H,0,0.,3.4130502889,-5.6564689551
 H,0,0.,-3.4130502889,-5.6564689551
 H,0,0.,3.4130502889,5.6564689551
 H,0,0.,-3.4130502889,5.6564689551
 H,0,0.,3.4324694771,-3.1853752491
 H,0,0.,-3.4324694771,-3.1853752491
 H,0,0.,3.4324694771,3.1853752491
 H,0,0.,-3.4324694771,3.1853752491
 H,0,0.,3.4240744031,-1.2145455047
 H,0,0.,3.4240744031,1.2145455047
 H,0,0.,-3.4240744031,-1.2145455047
 H,0,0.,-3.4240744031,1.2145455047
 Recover connectivity data from disk.
 NAtoms=     46 NQM=       46 NQMF=       0 NMMI=      0 NMMIF=      0
                NMic=       0 NMicF=      0.
                    Isotopes and Nuclear Properties:
 (Nuclear quadrupole moments (NQMom) in fm**2, nuclear magnetic moments (NMagM)
  in nuclear magnetons)

  Atom         1           2           3           4           5           6           7           8           9          10
 IAtWgt=          12          12          12          12          12          12          12          12          12          12
 AtmWgt=  12.0000000  12.0000000  12.0000000  12.0000000  12.0000000  12.0000000  12.0000000  12.0000000  12.0000000  12.0000000
 NucSpn=           0           0           0           0           0           0           0           0           0           0
 AtZEff=  -3.6000000  -3.6000000  -3.6000000  -3.6000000  -3.6000000  -3.6000000  -3.6000000  -3.6000000  -3.6000000  -3.6000000
 NQMom=    0.0000000   0.0000000   0.0000000   0.0000000   0.0000000   0.0000000   0.0000000   0.0000000   0.0000000   0.0000000
 NMagM=    0.0000000   0.0000000   0.0000000   0.0000000   0.0000000   0.0000000   0.0000000   0.0000000   0.0000000   0.0000000
 AtZNuc=   6.0000000   6.0000000   6.0000000   6.0000000   6.0000000   6.0000000   6.0000000   6.0000000   6.0000000   6.0000000

  Atom        11          12          13          14          15          16          17          18          19          20
 IAtWgt=          12          12          12          12          12          12          12          12          12          12
 AtmWgt=  12.0000000  12.0000000  12.0000000  12.0000000  12.0000000  12.0000000  12.0000000  12.0000000  12.0000000  12.0000000
 NucSpn=           0           0           0           0           0           0           0           0           0           0
 AtZEff=  -3.6000000  -3.6000000  -3.6000000  -3.6000000  -3.6000000  -3.6000000  -3.6000000  -3.6000000  -3.6000000  -3.6000000
 NQMom=    0.0000000   0.0000000   0.0000000   0.0000000   0.0000000   0.0000000   0.0000000   0.0000000   0.0000000   0.0000000
 NMagM=    0.0000000   0.0000000   0.0000000   0.0000000   0.0000000   0.0000000   0.0000000   0.0000000   0.0000000   0.0000000
 AtZNuc=   6.0000000   6.0000000   6.0000000   6.0000000   6.0000000   6.0000000   6.0000000   6.0000000   6.0000000   6.0000000

  Atom        21          22          23          24          25          26          27          28          29          30
 IAtWgt=          12          12          12          12          12          12          12          12          12          12
 AtmWgt=  12.0000000  12.0000000  12.0000000  12.0000000  12.0000000  12.0000000  12.0000000  12.0000000  12.0000000  12.0000000
 NucSpn=           0           0           0           0           0           0           0           0           0           0
 AtZEff=  -3.6000000  -3.6000000  -3.6000000  -3.6000000  -3.6000000  -3.6000000  -3.6000000  -3.6000000  -3.6000000  -3.6000000
 NQMom=    0.0000000   0.0000000   0.0000000   0.0000000   0.0000000   0.0000000   0.0000000   0.0000000   0.0000000   0.0000000
 NMagM=    0.0000000   0.0000000   0.0000000   0.0000000   0.0000000   0.0000000   0.0000000   0.0000000   0.0000000   0.0000000
 AtZNuc=   6.0000000   6.0000000   6.0000000   6.0000000   6.0000000   6.0000000   6.0000000   6.0000000   6.0000000   6.0000000

  Atom        31          32          33          34          35          36          37          38          39          40
 IAtWgt=           1           1           1           1           1           1           1           1           1           1
 AtmWgt=   1.0078250   1.0078250   1.0078250   1.0078250   1.0078250   1.0078250   1.0078250   1.0078250   1.0078250   1.0078250
 NucSpn=           1           1           1           1           1           1           1           1           1           1
 AtZEff=  -1.0000000  -1.0000000  -1.0000000  -1.0000000  -1.0000000  -1.0000000  -1.0000000  -1.0000000  -1.0000000  -1.0000000
 NQMom=    0.0000000   0.0000000   0.0000000   0.0000000   0.0000000   0.0000000   0.0000000   0.0000000   0.0000000   0.0000000
 NMagM=    2.7928460   2.7928460   2.7928460   2.7928460   2.7928460   2.7928460   2.7928460   2.7928460   2.7928460   2.7928460
 AtZNuc=   1.0000000   1.0000000   1.0000000   1.0000000   1.0000000   1.0000000   1.0000000   1.0000000   1.0000000   1.0000000

  Atom        41          42          43          44          45          46
 IAtWgt=           1           1           1           1           1           1
 AtmWgt=   1.0078250   1.0078250   1.0078250   1.0078250   1.0078250   1.0078250
 NucSpn=           1           1           1           1           1           1
 AtZEff=  -1.0000000  -1.0000000  -1.0000000  -1.0000000  -1.0000000  -1.0000000
 NQMom=    0.0000000   0.0000000   0.0000000   0.0000000   0.0000000   0.0000000
 NMagM=    2.7928460   2.7928460   2.7928460   2.7928460   2.7928460   2.7928460
 AtZNuc=   1.0000000   1.0000000   1.0000000   1.0000000   1.0000000   1.0000000
 Leave Link  101 at Tue May 30 17:14:31 2017, MaxMem=  2684354560 cpu:         4.5
 (Enter /shared/software/g09/l202.exe)
                          Input orientation:                          
 ---------------------------------------------------------------------
 Center     Atomic      Atomic             Coordinates (Angstroms)
 Number     Number       Type             X           Y           Z
 ---------------------------------------------------------------------
      1          6           0        0.000000    0.000000    3.654912
      2          6           0        0.000000    1.262046    2.940107
      3          6           0        0.000000    1.256688    1.456257
      4          6           0        0.000000    0.000000    0.730476
      5          6           0        0.000000   -1.256688    1.456257
      6          6           0        0.000000   -1.262046    2.940107
      7          6           0        0.000000    2.458401    0.704852
      8          6           0        0.000000    0.000000   -0.730476
      9          6           0        0.000000    1.256688   -1.456257
     10          6           0        0.000000    2.458401   -0.704852
     11          6           0        0.000000    1.262046   -2.940107
     12          6           0        0.000000    0.000000   -3.654912
     13          6           0        0.000000   -1.262046   -2.940107
     14          6           0        0.000000   -1.256688   -1.456257
     15          6           0        0.000000   -2.458401   -0.704852
     16          6           0        0.000000   -2.458401    0.704852
     17          6           0        0.000000    0.000000   -5.110919
     18          6           0        0.000000    2.465162   -3.692473
     19          6           0        0.000000   -2.465162   -3.692473
     20          6           0        0.000000    2.465162    3.692473
     21          6           0        0.000000    0.000000    5.110919
     22          6           0        0.000000   -2.465162    3.692473
     23          6           0        0.000000    2.460284   -5.116584
     24          6           0        0.000000   -1.249122   -5.821649
     25          6           0        0.000000   -2.460284   -5.116584
     26          6           0        0.000000    2.460284    5.116584
     27          6           0        0.000000    1.249122    5.821649
     28          6           0        0.000000   -2.460284    5.116584
     29          6           0        0.000000    1.249122   -5.821649
     30          6           0        0.000000   -1.249122    5.821649
     31          1           0        0.000000    1.237695   -6.917152
     32          1           0        0.000000   -1.237695   -6.917152
     33          1           0        0.000000    1.237695    6.917152
     34          1           0        0.000000   -1.237695    6.917152
     35          1           0        0.000000    3.413050   -5.656469
     36          1           0        0.000000   -3.413050   -5.656469
     37          1           0        0.000000    3.413050    5.656469
     38          1           0        0.000000   -3.413050    5.656469
     39          1           0        0.000000    3.432469   -3.185375
     40          1           0        0.000000   -3.432469   -3.185375
     41          1           0        0.000000    3.432469    3.185375
     42          1           0        0.000000   -3.432469    3.185375
     43          1           0        0.000000    3.424074   -1.214546
     44          1           0        0.000000    3.424074    1.214546
     45          1           0        0.000000   -3.424074   -1.214546
     46          1           0        0.000000   -3.424074    1.214546
 ---------------------------------------------------------------------
                    Distance matrix (angstroms):
                    1          2          3          4          5
     1  C    0.000000
     2  C    1.450416   0.000000
     3  C    2.532459   1.483859   0.000000
     4  C    2.924436   2.544647   1.451215   0.000000
     5  C    2.532459   2.923325   2.513377   1.451215   0.000000
     6  C    1.450416   2.524092   2.923325   2.544647   1.483859
     7  C    3.840129   2.535278   1.417294   2.458534   3.790316
     8  C    4.385389   3.881487   2.522116   1.460952   2.522116
     9  C    5.263395   4.396368   2.912515   2.522116   3.847051
    10  C    5.005125   3.836273   2.472752   2.846735   4.297939
    11  C    6.714689   5.880214   4.396368   3.881487   5.066759
    12  C    7.309825   6.714689   5.263395   4.385389   5.263395
    13  C    6.714689   6.399059   5.066759   3.881487   4.396368
    14  C    5.263395   5.066759   3.847051   2.522116   2.912515
    15  C    5.005125   5.208401   4.297939   2.846735   2.472752
    16  C    3.840129   4.340287   3.790316   2.458534   1.417294
    17  C    8.765832   8.149343   6.686335   5.841395   6.686335
    18  C    7.749910   6.740817   5.288651   5.063547   6.353078
    19  C    7.749910   7.608101   6.353078   5.063547   5.288651
    20  C    2.465448   1.418994   2.541863   3.853628   4.341985
    21  C    1.456007   2.511013   3.864689   4.380443   3.864689
    22  C    2.465448   3.802385   4.341985   3.853628   2.541863
    23  C    9.110002   8.145308   6.682131   6.343588   7.551034
    24  C    9.558531   9.114512   7.697208   6.670131   7.277910
    25  C    9.110002   8.875021   7.551034   6.343588   6.682131
    26  C    2.861727   2.484517   3.853132   5.029009   5.216692
    27  C    2.501010   2.881571   4.365398   5.242170   5.033461
    28  C    2.861727   4.311936   5.216692   5.029009   3.853132
    29  C    9.558531   8.761766   7.277910   6.670131   7.697208
    30  C    2.501010   3.822204   5.033461   5.242170   4.365398
    31  H   10.644268   9.857289   8.373431   7.747135   8.737044
    32  H   10.644268  10.169280   8.737044   7.747135   8.373431
    33  H    3.489140   3.977119   5.460928   6.309267   6.003609
    34  H    3.489140   4.697403   6.003609   6.309267   5.460928
    35  H    9.917194   8.861599   7.432414   7.241684   8.508662
    36  H    9.917194   9.785584   8.508662   7.241684   7.432414
    37  H    3.956658   3.464887   4.721406   5.992856   6.280783
    38  H    3.956658   5.406953   6.280783   5.992856   4.721406
    39  H    7.653194   6.498636   5.126283   5.207278   6.597951
    40  H    7.653194   7.717513   6.597951   5.207278   5.126283
    41  H    3.464435   2.184238   2.779185   4.219997   4.997804
    42  H    3.464435   4.700918   4.997804   4.219997   2.779185
    43  H    5.952807   4.683536   3.439586   3.937943   5.389131
    44  H    4.204721   2.766212   2.180823   3.458122   4.687000
    45  H    5.952807   6.262656   5.389131   3.937943   3.439586
    46  H    4.204721   4.993725   4.687000   3.458122   2.180823
                    6          7          8          9         10
     6  C    0.000000
     7  C    4.340287   0.000000
     8  C    3.881487   2.846735   0.000000
     9  C    5.066759   2.472752   1.451215   0.000000
    10  C    5.208401   1.409703   2.458534   1.417294   0.000000
    11  C    6.399059   3.836273   2.544647   1.483859   2.535278
    12  C    6.714689   5.005125   2.924436   2.532459   3.840129
    13  C    5.880214   5.208401   2.544647   2.923325   4.340287
    14  C    4.396368   4.297939   1.451215   2.513377   3.790316
    15  C    3.836273   5.114900   2.458534   3.790316   4.916801
    16  C    2.535278   4.916801   2.846735   4.297939   5.114900
    17  C    8.149343   6.314026   4.380443   3.864689   5.045509
    18  C    7.608101   4.397330   3.853628   2.541863   2.987629
    19  C    6.740817   6.601358   3.853628   4.341985   5.759110
    20  C    3.802385   2.987629   5.063547   5.288651   4.397330
    21  C    2.511013   5.045509   5.841395   6.686335   6.314026
    22  C    1.418994   5.759110   5.063547   6.353078   6.601358
    23  C    8.875021   5.821435   5.029009   3.853132   4.411732
    24  C    8.761766   7.506060   5.242170   5.033461   6.318808
    25  C    8.145308   7.621192   5.029009   5.216692   6.607332
    26  C    4.311936   4.411732   6.343588   6.682131   5.821435
    27  C    3.822204   5.257753   6.670131   7.277910   6.637587
    28  C    2.484517   6.607332   6.343588   7.551034   7.621192
    29  C    9.114512   6.637587   5.242170   4.365398   5.257753
    30  C    2.881571   6.318808   6.670131   7.697208   7.506060
    31  H   10.169280   7.719136   6.309267   5.460928   6.331098
    32  H    9.857289   8.470895   6.309267   6.003609   7.228679
    33  H    4.697403   6.331098   7.747135   8.373431   7.719136
    34  H    3.977119   7.228679   7.747135   8.737044   8.470895
    35  H    9.785584   6.432554   5.992856   4.721406   5.042804
    36  H    8.861599   8.656809   5.992856   6.280783   7.680654
    37  H    5.406953   5.042804   7.241684   7.432414   6.432554
    38  H    3.464887   7.680654   7.241684   8.508662   8.656809
    39  H    7.717513   4.010321   4.219997   2.779185   2.664922
    40  H    6.498636   7.059477   4.219997   4.997804   6.391819
    41  H    4.700918   2.664922   5.207278   5.126283   4.010321
    42  H    2.184238   6.391819   5.207278   6.597951   7.059477
    43  H    6.262656   2.148630   3.458122   2.180823   1.091931
    44  H    4.993725   1.091931   3.937943   3.439586   2.148630
    45  H    4.683536   6.187697   3.458122   4.687000   5.904515
    46  H    2.766212   5.904515   3.937943   5.389131   6.187697
                   11         12         13         14         15
    11  C    0.000000
    12  C    1.450416   0.000000
    13  C    2.524092   1.450416   0.000000
    14  C    2.923325   2.532459   1.483859   0.000000
    15  C    4.340287   3.840129   2.535278   1.417294   0.000000
    16  C    5.208401   5.005125   3.836273   2.472752   1.409703
    17  C    2.511013   1.456007   2.511013   3.864689   5.045509
    18  C    1.418994   2.465448   3.802385   4.341985   5.759110
    19  C    3.802385   2.465448   1.418994   2.541863   2.987629
    20  C    6.740817   7.749910   7.608101   6.353078   6.601358
    21  C    8.149343   8.765832   8.149343   6.686335   6.314026
    22  C    7.608101   7.749910   6.740817   5.288651   4.397330
    23  C    2.484517   2.861727   4.311936   5.216692   6.607332
    24  C    3.822204   2.501010   2.881571   4.365398   5.257753
    25  C    4.311936   2.861727   2.484517   3.853132   4.411732
    26  C    8.145308   9.110002   8.875021   7.551034   7.621192
    27  C    8.761766   9.558531   9.114512   7.697208   7.506060
    28  C    8.875021   9.110002   8.145308   6.682131   5.821435
    29  C    2.881571   2.501010   3.822204   5.033461   6.318808
    30  C    9.114512   9.558531   8.761766   7.277910   6.637587
    31  H    3.977119   3.489140   4.697403   6.003609   7.228679
    32  H    4.697403   3.489140   3.977119   5.460928   6.331098
    33  H    9.857289  10.644268  10.169280   8.737044   8.470895
    34  H   10.169280  10.644268   9.857289   8.373431   7.719136
    35  H    3.464887   3.956658   5.406953   6.280783   7.680654
    36  H    5.406953   3.956658   3.464887   4.721406   5.042804
    37  H    8.861599   9.917194   9.785584   8.508662   8.656809
    38  H    9.785584   9.917194   8.861599   7.432414   6.432554
    39  H    2.184238   3.464435   4.700918   4.997804   6.391819
    40  H    4.700918   3.464435   2.184238   2.779185   2.664922
    41  H    6.498636   7.653194   7.717513   6.597951   7.059477
    42  H    7.717513   7.653194   6.498636   5.126283   4.010321
    43  H    2.766212   4.204721   4.993725   4.687000   5.904515
    44  H    4.683536   5.952807   6.262656   5.389131   6.187697
    45  H    4.993725   4.204721   2.766212   2.180823   1.091931
    46  H    6.262656   5.952807   4.683536   3.439586   2.148630
                   16         17         18         19         20
    16  C    0.000000
    17  C    6.314026   0.000000
    18  C    6.601358   2.844119   0.000000
    19  C    4.397330   2.844119   4.930324   0.000000
    20  C    5.759110   9.142031   7.384946   8.879500   0.000000
    21  C    5.045509  10.221838   9.142031   9.142031   2.844119
    22  C    2.987629   9.142031   8.879500   7.384946   4.930324
    23  C    7.621192   2.460291   1.424119   5.127193   8.809058
    24  C    6.637587   1.437165   4.281273   2.451967  10.213443
    25  C    5.821435   2.460291   5.127193   1.424119  10.092547
    26  C    6.607332  10.519259   8.809058  10.092547   1.424119
    27  C    6.318808  11.003697   9.591521  10.213443   2.451967
    28  C    4.411732  10.519259  10.092547   8.809058   5.127193
    29  C    7.506060   1.437165   2.451967   4.281273   9.591521
    30  C    5.257753  11.003697  10.213443   9.591521   4.281273
    31  H    8.470895   2.189604   3.450396   4.910163  10.680394
    32  H    7.719136   2.189604   4.910163   3.450396  11.237228
    33  H    7.228679  12.091583  10.680394  11.237228   3.450396
    34  H    6.331098  12.091583  11.237228  10.680394   4.910163
    35  H    8.656809   3.456376   2.180773   6.197633   9.396872
    36  H    6.432554   3.456376   6.197633   2.180773  11.043373
    37  H    7.680654  11.295378   9.396872  11.043373   2.180773
    38  H    5.042804  11.295378  11.043373   9.396872   6.197633
    39  H    7.059477   3.935679   1.092169   5.919392   6.945537
    40  H    4.010321   3.935679   5.919392   1.092169   9.060180
    41  H    6.391819   8.978327   6.945537   9.060180   1.092169
    42  H    2.664922   8.978327   9.060180   6.945537   5.919392
    43  H    6.187697   5.187101   2.656998   6.389306   4.999834
    44  H    5.904515   7.192759   4.999834   7.665633   2.656998
    45  H    2.148630   5.187101   6.389306   2.656998   7.665633
    46  H    1.091931   7.192759   7.665633   4.999834   6.389306
                   21         22         23         24         25
    21  C    0.000000
    22  C    2.844119   0.000000
    23  C   10.519259  10.092547   0.000000
    24  C   11.003697   9.591521   3.775819   0.000000
    25  C   10.519259   8.809058   4.920568   1.401439   0.000000
    26  C    2.460291   5.127193  10.233167  11.550092  11.354721
    27  C    1.437165   4.281273  11.005082  11.908300  11.550092
    28  C    2.460291   1.424119  11.354721  11.005082  10.233167
    29  C   11.003697  10.213443   1.401439   2.498244   3.775819
    30  C    1.437165   2.451967  11.550092  11.643298  11.005082
    31  H   12.091583  11.237228   2.176412   2.717423   4.113040
    32  H   12.091583  10.680394   4.113040   1.095563   2.176412
    33  H    2.189604   4.910163  12.095682  12.979265  12.589116
    34  H    2.189604   3.450396  12.589116  12.738806  12.095682
    35  H   11.295378  11.043373   1.095098   4.665098   5.898096
    36  H   11.295378   9.396872   5.898096   2.170223   1.095098
    37  H    3.456376   6.197633  10.815102  12.388827  12.270074
    38  H    3.456376   2.180773  12.270074  11.680316  10.815102
    39  H    8.978327   9.060180   2.162108   5.372824   6.201138
    40  H    8.978327   6.945537   6.201138   3.423002   2.162108
    41  H    3.935679   5.919392   8.358688  10.151048  10.180720
    42  H    3.935679   1.092169  10.180720   9.267874   8.358688
    43  H    7.192759   7.665633   4.019302   6.562329   7.060565
    44  H    5.187101   6.389306   6.404068   8.446703   8.643429
    45  H    7.192759   4.999834   7.060565   5.094685   4.019302
    46  H    5.187101   2.656998   8.643429   7.364676   6.404068
                   26         27         28         29         30
    26  C    0.000000
    27  C    1.401439   0.000000
    28  C    4.920568   3.775819   0.000000
    29  C   11.005082  11.643298  11.550092   0.000000
    30  C    3.775819   2.498244   1.401439  11.908300   0.000000
    31  H   12.095682  12.738806  12.589116   1.095563  12.979265
    32  H   12.589116  12.979265  12.095682   2.717423  12.738806
    33  H    2.176412   1.095563   4.113040  12.738806   2.717423
    34  H    4.113040   2.717423   2.176412  12.979265   1.095563
    35  H   10.815102  11.680316  12.270074   2.170223  12.388827
    36  H   12.270074  12.388827  10.815102   4.665098  11.680316
    37  H    1.095098   2.170223   5.898096  11.680316   4.665098
    38  H    5.898096   4.665098   1.095098  12.388827   2.170223
    39  H    8.358688   9.267874  10.180720   3.423002  10.151048
    40  H   10.180720  10.151048   8.358688   5.372824   9.267874
    41  H    2.162108   3.423002   6.201138   9.267874   5.372824
    42  H    6.201138   5.372824   2.162108  10.151048   3.423002
    43  H    6.404068   7.364676   8.643429   5.094685   8.446703
    44  H    4.019302   5.094685   7.060565   7.364676   6.562329
    45  H    8.643429   8.446703   6.404068   6.562329   7.364676
    46  H    7.060565   6.562329   4.019302   8.446703   5.094685
                   31         32         33         34         35
    31  H    0.000000
    32  H    2.475390   0.000000
    33  H   13.834304  14.054022   0.000000
    34  H   14.054022  13.834304   2.475390   0.000000
    35  H    2.514258   4.818584  12.760412  13.406169   0.000000
    36  H    4.818584   2.514258  13.406169  12.760412   6.826101
    37  H   12.760412  13.406169   2.514258   4.818584  11.312938
    38  H   13.406169  12.760412   4.818584   2.514258  13.212805
    39  H    4.329341   5.978009  10.338186  11.129757   2.471170
    40  H    5.978009   4.329341  11.129757  10.338186   7.277874
    41  H   10.338186  11.129757   4.329341   5.978009   8.841866
    42  H   11.129757  10.338186   5.978009   4.329341  11.182100
    43  H    6.107371   7.365583   8.420496   9.373185   4.441937
    44  H    8.420496   9.373185   6.107371   7.365583   6.871023
    45  H    7.365583   6.107371   9.373185   8.420496   8.153340
    46  H    9.373185   8.420496   7.365583   6.107371   9.693148
                   36         37         38         39         40
    36  H    0.000000
    37  H   13.212805   0.000000
    38  H   11.312938   6.826101   0.000000
    39  H    7.277874   8.841866  11.182100   0.000000
    40  H    2.471170  11.182100   8.841866   6.864939   0.000000
    41  H   11.182100   2.471170   7.277874   6.370750   9.365567
    42  H    8.841866   7.277874   2.471170   9.365567   6.370750
    43  H    8.153340   6.871023   9.693148   1.970848   7.134169
    44  H    9.693148   4.441937   8.153340   4.399929   8.146870
    45  H    4.441937   9.693148   6.871023   7.134169   1.970848
    46  H    6.871023   8.153340   4.441937   8.146870   4.399929
                   41         42         43         44         45
    41  H    0.000000
    42  H    6.864939   0.000000
    43  H    4.399929   8.146870   0.000000
    44  H    1.970848   7.134169   2.429091   0.000000
    45  H    8.146870   4.399929   6.848149   7.266197   0.000000
    46  H    7.134169   1.970848   7.266197   6.848149   2.429091
                   46
    46  H    0.000000
 Symmetry turned off by external request.
 Stoichiometry    C30H16
 Framework group  D2H[C2"(CCC.CCC),SG(C24H16)]
 Deg. of freedom    23
 Full point group                 D2H     NOp   8
 Rotational constants (GHZ):      0.4051497      0.0934595      0.0759414
 Leave Link  202 at Tue May 30 17:14:31 2017, MaxMem=  2684354560 cpu:         0.1
 (Enter /shared/software/g09/l301.exe)
 Standard basis: LANL2DZ (5D, 7F)
 ======================================================================================================
                                       Pseudopotential Parameters
 ======================================================================================================
  Center     Atomic      Valence      Angular      Power
  Number     Number     Electrons     Momentum     of R      Exponent        Coefficient   SO-Coeffient
 ======================================================================================================
    1          6
                                   No pseudopotential on this center.
    2          6
                                   No pseudopotential on this center.
    3          6
                                   No pseudopotential on this center.
    4          6
                                   No pseudopotential on this center.
    5          6
                                   No pseudopotential on this center.
    6          6
                                   No pseudopotential on this center.
    7          6
                                   No pseudopotential on this center.
    8          6
                                   No pseudopotential on this center.
    9          6
                                   No pseudopotential on this center.
   10          6
                                   No pseudopotential on this center.
   11          6
                                   No pseudopotential on this center.
   12          6
                                   No pseudopotential on this center.
   13          6
                                   No pseudopotential on this center.
   14          6
                                   No pseudopotential on this center.
   15          6
                                   No pseudopotential on this center.
   16          6
                                   No pseudopotential on this center.
   17          6
                                   No pseudopotential on this center.
   18          6
                                   No pseudopotential on this center.
   19          6
                                   No pseudopotential on this center.
   20          6
                                   No pseudopotential on this center.
   21          6
                                   No pseudopotential on this center.
   22          6
                                   No pseudopotential on this center.
   23          6
                                   No pseudopotential on this center.
   24          6
                                   No pseudopotential on this center.
   25          6
                                   No pseudopotential on this center.
   26          6
                                   No pseudopotential on this center.
   27          6
                                   No pseudopotential on this center.
   28          6
                                   No pseudopotential on this center.
   29          6
                                   No pseudopotential on this center.
   30          6
                                   No pseudopotential on this center.
   31          1
                                   No pseudopotential on this center.
   32          1
                                   No pseudopotential on this center.
   33          1
                                   No pseudopotential on this center.
   34          1
                                   No pseudopotential on this center.
   35          1
                                   No pseudopotential on this center.
   36          1
                                   No pseudopotential on this center.
   37          1
                                   No pseudopotential on this center.
   38          1
                                   No pseudopotential on this center.
   39          1
                                   No pseudopotential on this center.
   40          1
                                   No pseudopotential on this center.
   41          1
                                   No pseudopotential on this center.
   42          1
                                   No pseudopotential on this center.
   43          1
                                   No pseudopotential on this center.
   44          1
                                   No pseudopotential on this center.
   45          1
                                   No pseudopotential on this center.
   46          1
                                   No pseudopotential on this center.
 ======================================================================================================
 Ernie: Thresh=  0.10000D-02 Tol=  0.10000D-05 Strict=F.
 AO basis set in the form of general basis input (Overlap normalization):
      1 0
 S   7 1.00       0.000000000000
      0.4233000000D+04  0.1219999687D-02
      0.6349000000D+03  0.9341997607D-02
      0.1461000000D+03  0.4545198836D-01
      0.4250000000D+02  0.1546569604D+00
      0.1419000000D+02  0.3588659081D+00
      0.5148000000D+01  0.4386318876D+00
      0.1967000000D+01  0.1459179626D+00
 S   2 1.00       0.000000000000
      0.5148000000D+01 -0.1683669561D+00
      0.4962000000D+00  0.1060090723D+01
 S   1 1.00       0.000000000000
      0.1533000000D+00  0.1000000000D+01
 P   4 1.00       0.000000000000
      0.1816000000D+02  0.1853899981D-01
      0.3986000000D+01  0.1154359988D+00
      0.1143000000D+01  0.3861879960D+00
      0.3594000000D+00  0.6401139934D+00
 P   1 1.00       0.000000000000
      0.1146000000D+00  0.1000000000D+01
 ****
      2 0
 S   7 1.00       0.000000000000
      0.4233000000D+04  0.1219999687D-02
      0.6349000000D+03  0.9341997607D-02
      0.1461000000D+03  0.4545198836D-01
      0.4250000000D+02  0.1546569604D+00
      0.1419000000D+02  0.3588659081D+00
      0.5148000000D+01  0.4386318876D+00
      0.1967000000D+01  0.1459179626D+00
 S   2 1.00       0.000000000000
      0.5148000000D+01 -0.1683669561D+00
      0.4962000000D+00  0.1060090723D+01
 S   1 1.00       0.000000000000
      0.1533000000D+00  0.1000000000D+01
 P   4 1.00       0.000000000000
      0.1816000000D+02  0.1853899981D-01
      0.3986000000D+01  0.1154359988D+00
      0.1143000000D+01  0.3861879960D+00
      0.3594000000D+00  0.6401139934D+00
 P   1 1.00       0.000000000000
      0.1146000000D+00  0.1000000000D+01
 ****
      3 0
 S   7 1.00       0.000000000000
      0.4233000000D+04  0.1219999687D-02
      0.6349000000D+03  0.9341997607D-02
      0.1461000000D+03  0.4545198836D-01
      0.4250000000D+02  0.1546569604D+00
      0.1419000000D+02  0.3588659081D+00
      0.5148000000D+01  0.4386318876D+00
      0.1967000000D+01  0.1459179626D+00
 S   2 1.00       0.000000000000
      0.5148000000D+01 -0.1683669561D+00
      0.4962000000D+00  0.1060090723D+01
 S   1 1.00       0.000000000000
      0.1533000000D+00  0.1000000000D+01
 P   4 1.00       0.000000000000
      0.1816000000D+02  0.1853899981D-01
      0.3986000000D+01  0.1154359988D+00
      0.1143000000D+01  0.3861879960D+00
      0.3594000000D+00  0.6401139934D+00
 P   1 1.00       0.000000000000
      0.1146000000D+00  0.1000000000D+01
 ****
      4 0
 S   7 1.00       0.000000000000
      0.4233000000D+04  0.1219999687D-02
      0.6349000000D+03  0.9341997607D-02
      0.1461000000D+03  0.4545198836D-01
      0.4250000000D+02  0.1546569604D+00
      0.1419000000D+02  0.3588659081D+00
      0.5148000000D+01  0.4386318876D+00
      0.1967000000D+01  0.1459179626D+00
 S   2 1.00       0.000000000000
      0.5148000000D+01 -0.1683669561D+00
      0.4962000000D+00  0.1060090723D+01
 S   1 1.00       0.000000000000
      0.1533000000D+00  0.1000000000D+01
 P   4 1.00       0.000000000000
      0.1816000000D+02  0.1853899981D-01
      0.3986000000D+01  0.1154359988D+00
      0.1143000000D+01  0.3861879960D+00
      0.3594000000D+00  0.6401139934D+00
 P   1 1.00       0.000000000000
      0.1146000000D+00  0.1000000000D+01
 ****
      5 0
 S   7 1.00       0.000000000000
      0.4233000000D+04  0.1219999687D-02
      0.6349000000D+03  0.9341997607D-02
      0.1461000000D+03  0.4545198836D-01
      0.4250000000D+02  0.1546569604D+00
      0.1419000000D+02  0.3588659081D+00
      0.5148000000D+01  0.4386318876D+00
      0.1967000000D+01  0.1459179626D+00
 S   2 1.00       0.000000000000
      0.5148000000D+01 -0.1683669561D+00
      0.4962000000D+00  0.1060090723D+01
 S   1 1.00       0.000000000000
      0.1533000000D+00  0.1000000000D+01
 P   4 1.00       0.000000000000
      0.1816000000D+02  0.1853899981D-01
      0.3986000000D+01  0.1154359988D+00
      0.1143000000D+01  0.3861879960D+00
      0.3594000000D+00  0.6401139934D+00
 P   1 1.00       0.000000000000
      0.1146000000D+00  0.1000000000D+01
 ****
      6 0
 S   7 1.00       0.000000000000
      0.4233000000D+04  0.1219999687D-02
      0.6349000000D+03  0.9341997607D-02
      0.1461000000D+03  0.4545198836D-01
      0.4250000000D+02  0.1546569604D+00
      0.1419000000D+02  0.3588659081D+00
      0.5148000000D+01  0.4386318876D+00
      0.1967000000D+01  0.1459179626D+00
 S   2 1.00       0.000000000000
      0.5148000000D+01 -0.1683669561D+00
      0.4962000000D+00  0.1060090723D+01
 S   1 1.00       0.000000000000
      0.1533000000D+00  0.1000000000D+01
 P   4 1.00       0.000000000000
      0.1816000000D+02  0.1853899981D-01
      0.3986000000D+01  0.1154359988D+00
      0.1143000000D+01  0.3861879960D+00
      0.3594000000D+00  0.6401139934D+00
 P   1 1.00       0.000000000000
      0.1146000000D+00  0.1000000000D+01
 ****
      7 0
 S   7 1.00       0.000000000000
      0.4233000000D+04  0.1219999687D-02
      0.6349000000D+03  0.9341997607D-02
      0.1461000000D+03  0.4545198836D-01
      0.4250000000D+02  0.1546569604D+00
      0.1419000000D+02  0.3588659081D+00
      0.5148000000D+01  0.4386318876D+00
      0.1967000000D+01  0.1459179626D+00
 S   2 1.00       0.000000000000
      0.5148000000D+01 -0.1683669561D+00
      0.4962000000D+00  0.1060090723D+01
 S   1 1.00       0.000000000000
      0.1533000000D+00  0.1000000000D+01
 P   4 1.00       0.000000000000
      0.1816000000D+02  0.1853899981D-01
      0.3986000000D+01  0.1154359988D+00
      0.1143000000D+01  0.3861879960D+00
      0.3594000000D+00  0.6401139934D+00
 P   1 1.00       0.000000000000
      0.1146000000D+00  0.1000000000D+01
 ****
      8 0
 S   7 1.00       0.000000000000
      0.4233000000D+04  0.1219999687D-02
      0.6349000000D+03  0.9341997607D-02
      0.1461000000D+03  0.4545198836D-01
      0.4250000000D+02  0.1546569604D+00
      0.1419000000D+02  0.3588659081D+00
      0.5148000000D+01  0.4386318876D+00
      0.1967000000D+01  0.1459179626D+00
 S   2 1.00       0.000000000000
      0.5148000000D+01 -0.1683669561D+00
      0.4962000000D+00  0.1060090723D+01
 S   1 1.00       0.000000000000
      0.1533000000D+00  0.1000000000D+01
 P   4 1.00       0.000000000000
      0.1816000000D+02  0.1853899981D-01
      0.3986000000D+01  0.1154359988D+00
      0.1143000000D+01  0.3861879960D+00
      0.3594000000D+00  0.6401139934D+00
 P   1 1.00       0.000000000000
      0.1146000000D+00  0.1000000000D+01
 ****
      9 0
 S   7 1.00       0.000000000000
      0.4233000000D+04  0.1219999687D-02
      0.6349000000D+03  0.9341997607D-02
      0.1461000000D+03  0.4545198836D-01
      0.4250000000D+02  0.1546569604D+00
      0.1419000000D+02  0.3588659081D+00
      0.5148000000D+01  0.4386318876D+00
      0.1967000000D+01  0.1459179626D+00
 S   2 1.00       0.000000000000
      0.5148000000D+01 -0.1683669561D+00
      0.4962000000D+00  0.1060090723D+01
 S   1 1.00       0.000000000000
      0.1533000000D+00  0.1000000000D+01
 P   4 1.00       0.000000000000
      0.1816000000D+02  0.1853899981D-01
      0.3986000000D+01  0.1154359988D+00
      0.1143000000D+01  0.3861879960D+00
      0.3594000000D+00  0.6401139934D+00
 P   1 1.00       0.000000000000
      0.1146000000D+00  0.1000000000D+01
 ****
     10 0
 S   7 1.00       0.000000000000
      0.4233000000D+04  0.1219999687D-02
      0.6349000000D+03  0.9341997607D-02
      0.1461000000D+03  0.4545198836D-01
      0.4250000000D+02  0.1546569604D+00
      0.1419000000D+02  0.3588659081D+00
      0.5148000000D+01  0.4386318876D+00
      0.1967000000D+01  0.1459179626D+00
 S   2 1.00       0.000000000000
      0.5148000000D+01 -0.1683669561D+00
      0.4962000000D+00  0.1060090723D+01
 S   1 1.00       0.000000000000
      0.1533000000D+00  0.1000000000D+01
 P   4 1.00       0.000000000000
      0.1816000000D+02  0.1853899981D-01
      0.3986000000D+01  0.1154359988D+00
      0.1143000000D+01  0.3861879960D+00
      0.3594000000D+00  0.6401139934D+00
 P   1 1.00       0.000000000000
      0.1146000000D+00  0.1000000000D+01
 ****
     11 0
 S   7 1.00       0.000000000000
      0.4233000000D+04  0.1219999687D-02
      0.6349000000D+03  0.9341997607D-02
      0.1461000000D+03  0.4545198836D-01
      0.4250000000D+02  0.1546569604D+00
      0.1419000000D+02  0.3588659081D+00
      0.5148000000D+01  0.4386318876D+00
      0.1967000000D+01  0.1459179626D+00
 S   2 1.00       0.000000000000
      0.5148000000D+01 -0.1683669561D+00
      0.4962000000D+00  0.1060090723D+01
 S   1 1.00       0.000000000000
      0.1533000000D+00  0.1000000000D+01
 P   4 1.00       0.000000000000
      0.1816000000D+02  0.1853899981D-01
      0.3986000000D+01  0.1154359988D+00
      0.1143000000D+01  0.3861879960D+00
      0.3594000000D+00  0.6401139934D+00
 P   1 1.00       0.000000000000
      0.1146000000D+00  0.1000000000D+01
 ****
     12 0
 S   7 1.00       0.000000000000
      0.4233000000D+04  0.1219999687D-02
      0.6349000000D+03  0.9341997607D-02
      0.1461000000D+03  0.4545198836D-01
      0.4250000000D+02  0.1546569604D+00
      0.1419000000D+02  0.3588659081D+00
      0.5148000000D+01  0.4386318876D+00
      0.1967000000D+01  0.1459179626D+00
 S   2 1.00       0.000000000000
      0.5148000000D+01 -0.1683669561D+00
      0.4962000000D+00  0.1060090723D+01
 S   1 1.00       0.000000000000
      0.1533000000D+00  0.1000000000D+01
 P   4 1.00       0.000000000000
      0.1816000000D+02  0.1853899981D-01
      0.3986000000D+01  0.1154359988D+00
      0.1143000000D+01  0.3861879960D+00
      0.3594000000D+00  0.6401139934D+00
 P   1 1.00       0.000000000000
      0.1146000000D+00  0.1000000000D+01
 ****
     13 0
 S   7 1.00       0.000000000000
      0.4233000000D+04  0.1219999687D-02
      0.6349000000D+03  0.9341997607D-02
      0.1461000000D+03  0.4545198836D-01
      0.4250000000D+02  0.1546569604D+00
      0.1419000000D+02  0.3588659081D+00
      0.5148000000D+01  0.4386318876D+00
      0.1967000000D+01  0.1459179626D+00
 S   2 1.00       0.000000000000
      0.5148000000D+01 -0.1683669561D+00
      0.4962000000D+00  0.1060090723D+01
 S   1 1.00       0.000000000000
      0.1533000000D+00  0.1000000000D+01
 P   4 1.00       0.000000000000
      0.1816000000D+02  0.1853899981D-01
      0.3986000000D+01  0.1154359988D+00
      0.1143000000D+01  0.3861879960D+00
      0.3594000000D+00  0.6401139934D+00
 P   1 1.00       0.000000000000
      0.1146000000D+00  0.1000000000D+01
 ****
     14 0
 S   7 1.00       0.000000000000
      0.4233000000D+04  0.1219999687D-02
      0.6349000000D+03  0.9341997607D-02
      0.1461000000D+03  0.4545198836D-01
      0.4250000000D+02  0.1546569604D+00
      0.1419000000D+02  0.3588659081D+00
      0.5148000000D+01  0.4386318876D+00
      0.1967000000D+01  0.1459179626D+00
 S   2 1.00       0.000000000000
      0.5148000000D+01 -0.1683669561D+00
      0.4962000000D+00  0.1060090723D+01
 S   1 1.00       0.000000000000
      0.1533000000D+00  0.1000000000D+01
 P   4 1.00       0.000000000000
      0.1816000000D+02  0.1853899981D-01
      0.3986000000D+01  0.1154359988D+00
      0.1143000000D+01  0.3861879960D+00
      0.3594000000D+00  0.6401139934D+00
 P   1 1.00       0.000000000000
      0.1146000000D+00  0.1000000000D+01
 ****
     15 0
 S   7 1.00       0.000000000000
      0.4233000000D+04  0.1219999687D-02
      0.6349000000D+03  0.9341997607D-02
      0.1461000000D+03  0.4545198836D-01
      0.4250000000D+02  0.1546569604D+00
      0.1419000000D+02  0.3588659081D+00
      0.5148000000D+01  0.4386318876D+00
      0.1967000000D+01  0.1459179626D+00
 S   2 1.00       0.000000000000
      0.5148000000D+01 -0.1683669561D+00
      0.4962000000D+00  0.1060090723D+01
 S   1 1.00       0.000000000000
      0.1533000000D+00  0.1000000000D+01
 P   4 1.00       0.000000000000
      0.1816000000D+02  0.1853899981D-01
      0.3986000000D+01  0.1154359988D+00
      0.1143000000D+01  0.3861879960D+00
      0.3594000000D+00  0.6401139934D+00
 P   1 1.00       0.000000000000
      0.1146000000D+00  0.1000000000D+01
 ****
     16 0
 S   7 1.00       0.000000000000
      0.4233000000D+04  0.1219999687D-02
      0.6349000000D+03  0.9341997607D-02
      0.1461000000D+03  0.4545198836D-01
      0.4250000000D+02  0.1546569604D+00
      0.1419000000D+02  0.3588659081D+00
      0.5148000000D+01  0.4386318876D+00
      0.1967000000D+01  0.1459179626D+00
 S   2 1.00       0.000000000000
      0.5148000000D+01 -0.1683669561D+00
      0.4962000000D+00  0.1060090723D+01
 S   1 1.00       0.000000000000
      0.1533000000D+00  0.1000000000D+01
 P   4 1.00       0.000000000000
      0.1816000000D+02  0.1853899981D-01
      0.3986000000D+01  0.1154359988D+00
      0.1143000000D+01  0.3861879960D+00
      0.3594000000D+00  0.6401139934D+00
 P   1 1.00       0.000000000000
      0.1146000000D+00  0.1000000000D+01
 ****
     17 0
 S   7 1.00       0.000000000000
      0.4233000000D+04  0.1219999687D-02
      0.6349000000D+03  0.9341997607D-02
      0.1461000000D+03  0.4545198836D-01
      0.4250000000D+02  0.1546569604D+00
      0.1419000000D+02  0.3588659081D+00
      0.5148000000D+01  0.4386318876D+00
      0.1967000000D+01  0.1459179626D+00
 S   2 1.00       0.000000000000
      0.5148000000D+01 -0.1683669561D+00
      0.4962000000D+00  0.1060090723D+01
 S   1 1.00       0.000000000000
      0.1533000000D+00  0.1000000000D+01
 P   4 1.00       0.000000000000
      0.1816000000D+02  0.1853899981D-01
      0.3986000000D+01  0.1154359988D+00
      0.1143000000D+01  0.3861879960D+00
      0.3594000000D+00  0.6401139934D+00
 P   1 1.00       0.000000000000
      0.1146000000D+00  0.1000000000D+01
 ****
     18 0
 S   7 1.00       0.000000000000
      0.4233000000D+04  0.1219999687D-02
      0.6349000000D+03  0.9341997607D-02
      0.1461000000D+03  0.4545198836D-01
      0.4250000000D+02  0.1546569604D+00
      0.1419000000D+02  0.3588659081D+00
      0.5148000000D+01  0.4386318876D+00
      0.1967000000D+01  0.1459179626D+00
 S   2 1.00       0.000000000000
      0.5148000000D+01 -0.1683669561D+00
      0.4962000000D+00  0.1060090723D+01
 S   1 1.00       0.000000000000
      0.1533000000D+00  0.1000000000D+01
 P   4 1.00       0.000000000000
      0.1816000000D+02  0.1853899981D-01
      0.3986000000D+01  0.1154359988D+00
      0.1143000000D+01  0.3861879960D+00
      0.3594000000D+00  0.6401139934D+00
 P   1 1.00       0.000000000000
      0.1146000000D+00  0.1000000000D+01
 ****
     19 0
 S   7 1.00       0.000000000000
      0.4233000000D+04  0.1219999687D-02
      0.6349000000D+03  0.9341997607D-02
      0.1461000000D+03  0.4545198836D-01
      0.4250000000D+02  0.1546569604D+00
      0.1419000000D+02  0.3588659081D+00
      0.5148000000D+01  0.4386318876D+00
      0.1967000000D+01  0.1459179626D+00
 S   2 1.00       0.000000000000
      0.5148000000D+01 -0.1683669561D+00
      0.4962000000D+00  0.1060090723D+01
 S   1 1.00       0.000000000000
      0.1533000000D+00  0.1000000000D+01
 P   4 1.00       0.000000000000
      0.1816000000D+02  0.1853899981D-01
      0.3986000000D+01  0.1154359988D+00
      0.1143000000D+01  0.3861879960D+00
      0.3594000000D+00  0.6401139934D+00
 P   1 1.00       0.000000000000
      0.1146000000D+00  0.1000000000D+01
 ****
     20 0
 S   7 1.00       0.000000000000
      0.4233000000D+04  0.1219999687D-02
      0.6349000000D+03  0.9341997607D-02
      0.1461000000D+03  0.4545198836D-01
      0.4250000000D+02  0.1546569604D+00
      0.1419000000D+02  0.3588659081D+00
      0.5148000000D+01  0.4386318876D+00
      0.1967000000D+01  0.1459179626D+00
 S   2 1.00       0.000000000000
      0.5148000000D+01 -0.1683669561D+00
      0.4962000000D+00  0.1060090723D+01
 S   1 1.00       0.000000000000
      0.1533000000D+00  0.1000000000D+01
 P   4 1.00       0.000000000000
      0.1816000000D+02  0.1853899981D-01
      0.3986000000D+01  0.1154359988D+00
      0.1143000000D+01  0.3861879960D+00
      0.3594000000D+00  0.6401139934D+00
 P   1 1.00       0.000000000000
      0.1146000000D+00  0.1000000000D+01
 ****
     21 0
 S   7 1.00       0.000000000000
      0.4233000000D+04  0.1219999687D-02
      0.6349000000D+03  0.9341997607D-02
      0.1461000000D+03  0.4545198836D-01
      0.4250000000D+02  0.1546569604D+00
      0.1419000000D+02  0.3588659081D+00
      0.5148000000D+01  0.4386318876D+00
      0.1967000000D+01  0.1459179626D+00
 S   2 1.00       0.000000000000
      0.5148000000D+01 -0.1683669561D+00
      0.4962000000D+00  0.1060090723D+01
 S   1 1.00       0.000000000000
      0.1533000000D+00  0.1000000000D+01
 P   4 1.00       0.000000000000
      0.1816000000D+02  0.1853899981D-01
      0.3986000000D+01  0.1154359988D+00
      0.1143000000D+01  0.3861879960D+00
      0.3594000000D+00  0.6401139934D+00
 P   1 1.00       0.000000000000
      0.1146000000D+00  0.1000000000D+01
 ****
     22 0
 S   7 1.00       0.000000000000
      0.4233000000D+04  0.1219999687D-02
      0.6349000000D+03  0.9341997607D-02
      0.1461000000D+03  0.4545198836D-01
      0.4250000000D+02  0.1546569604D+00
      0.1419000000D+02  0.3588659081D+00
      0.5148000000D+01  0.4386318876D+00
      0.1967000000D+01  0.1459179626D+00
 S   2 1.00       0.000000000000
      0.5148000000D+01 -0.1683669561D+00
      0.4962000000D+00  0.1060090723D+01
 S   1 1.00       0.000000000000
      0.1533000000D+00  0.1000000000D+01
 P   4 1.00       0.000000000000
      0.1816000000D+02  0.1853899981D-01
      0.3986000000D+01  0.1154359988D+00
      0.1143000000D+01  0.3861879960D+00
      0.3594000000D+00  0.6401139934D+00
 P   1 1.00       0.000000000000
      0.1146000000D+00  0.1000000000D+01
 ****
     23 0
 S   7 1.00       0.000000000000
      0.4233000000D+04  0.1219999687D-02
      0.6349000000D+03  0.9341997607D-02
      0.1461000000D+03  0.4545198836D-01
      0.4250000000D+02  0.1546569604D+00
      0.1419000000D+02  0.3588659081D+00
      0.5148000000D+01  0.4386318876D+00
      0.1967000000D+01  0.1459179626D+00
 S   2 1.00       0.000000000000
      0.5148000000D+01 -0.1683669561D+00
      0.4962000000D+00  0.1060090723D+01
 S   1 1.00       0.000000000000
      0.1533000000D+00  0.1000000000D+01
 P   4 1.00       0.000000000000
      0.1816000000D+02  0.1853899981D-01
      0.3986000000D+01  0.1154359988D+00
      0.1143000000D+01  0.3861879960D+00
      0.3594000000D+00  0.6401139934D+00
 P   1 1.00       0.000000000000
      0.1146000000D+00  0.1000000000D+01
 ****
     24 0
 S   7 1.00       0.000000000000
      0.4233000000D+04  0.1219999687D-02
      0.6349000000D+03  0.9341997607D-02
      0.1461000000D+03  0.4545198836D-01
      0.4250000000D+02  0.1546569604D+00
      0.1419000000D+02  0.3588659081D+00
      0.5148000000D+01  0.4386318876D+00
      0.1967000000D+01  0.1459179626D+00
 S   2 1.00       0.000000000000
      0.5148000000D+01 -0.1683669561D+00
      0.4962000000D+00  0.1060090723D+01
 S   1 1.00       0.000000000000
      0.1533000000D+00  0.1000000000D+01
 P   4 1.00       0.000000000000
      0.1816000000D+02  0.1853899981D-01
      0.3986000000D+01  0.1154359988D+00
      0.1143000000D+01  0.3861879960D+00
      0.3594000000D+00  0.6401139934D+00
 P   1 1.00       0.000000000000
      0.1146000000D+00  0.1000000000D+01
 ****
     25 0
 S   7 1.00       0.000000000000
      0.4233000000D+04  0.1219999687D-02
      0.6349000000D+03  0.9341997607D-02
      0.1461000000D+03  0.4545198836D-01
      0.4250000000D+02  0.1546569604D+00
      0.1419000000D+02  0.3588659081D+00
      0.5148000000D+01  0.4386318876D+00
      0.1967000000D+01  0.1459179626D+00
 S   2 1.00       0.000000000000
      0.5148000000D+01 -0.1683669561D+00
      0.4962000000D+00  0.1060090723D+01
 S   1 1.00       0.000000000000
      0.1533000000D+00  0.1000000000D+01
 P   4 1.00       0.000000000000
      0.1816000000D+02  0.1853899981D-01
      0.3986000000D+01  0.1154359988D+00
      0.1143000000D+01  0.3861879960D+00
      0.3594000000D+00  0.6401139934D+00
 P   1 1.00       0.000000000000
      0.1146000000D+00  0.1000000000D+01
 ****
     26 0
 S   7 1.00       0.000000000000
      0.4233000000D+04  0.1219999687D-02
      0.6349000000D+03  0.9341997607D-02
      0.1461000000D+03  0.4545198836D-01
      0.4250000000D+02  0.1546569604D+00
      0.1419000000D+02  0.3588659081D+00
      0.5148000000D+01  0.4386318876D+00
      0.1967000000D+01  0.1459179626D+00
 S   2 1.00       0.000000000000
      0.5148000000D+01 -0.1683669561D+00
      0.4962000000D+00  0.1060090723D+01
 S   1 1.00       0.000000000000
      0.1533000000D+00  0.1000000000D+01
 P   4 1.00       0.000000000000
      0.1816000000D+02  0.1853899981D-01
      0.3986000000D+01  0.1154359988D+00
      0.1143000000D+01  0.3861879960D+00
      0.3594000000D+00  0.6401139934D+00
 P   1 1.00       0.000000000000
      0.1146000000D+00  0.1000000000D+01
 ****
     27 0
 S   7 1.00       0.000000000000
      0.4233000000D+04  0.1219999687D-02
      0.6349000000D+03  0.9341997607D-02
      0.1461000000D+03  0.4545198836D-01
      0.4250000000D+02  0.1546569604D+00
      0.1419000000D+02  0.3588659081D+00
      0.5148000000D+01  0.4386318876D+00
      0.1967000000D+01  0.1459179626D+00
 S   2 1.00       0.000000000000
      0.5148000000D+01 -0.1683669561D+00
      0.4962000000D+00  0.1060090723D+01
 S   1 1.00       0.000000000000
      0.1533000000D+00  0.1000000000D+01
 P   4 1.00       0.000000000000
      0.1816000000D+02  0.1853899981D-01
      0.3986000000D+01  0.1154359988D+00
      0.1143000000D+01  0.3861879960D+00
      0.3594000000D+00  0.6401139934D+00
 P   1 1.00       0.000000000000
      0.1146000000D+00  0.1000000000D+01
 ****
     28 0
 S   7 1.00       0.000000000000
      0.4233000000D+04  0.1219999687D-02
      0.6349000000D+03  0.9341997607D-02
      0.1461000000D+03  0.4545198836D-01
      0.4250000000D+02  0.1546569604D+00
      0.1419000000D+02  0.3588659081D+00
      0.5148000000D+01  0.4386318876D+00
      0.1967000000D+01  0.1459179626D+00
 S   2 1.00       0.000000000000
      0.5148000000D+01 -0.1683669561D+00
      0.4962000000D+00  0.1060090723D+01
 S   1 1.00       0.000000000000
      0.1533000000D+00  0.1000000000D+01
 P   4 1.00       0.000000000000
      0.1816000000D+02  0.1853899981D-01
      0.3986000000D+01  0.1154359988D+00
      0.1143000000D+01  0.3861879960D+00
      0.3594000000D+00  0.6401139934D+00
 P   1 1.00       0.000000000000
      0.1146000000D+00  0.1000000000D+01
 ****
     29 0
 S   7 1.00       0.000000000000
      0.4233000000D+04  0.1219999687D-02
      0.6349000000D+03  0.9341997607D-02
      0.1461000000D+03  0.4545198836D-01
      0.4250000000D+02  0.1546569604D+00
      0.1419000000D+02  0.3588659081D+00
      0.5148000000D+01  0.4386318876D+00
      0.1967000000D+01  0.1459179626D+00
 S   2 1.00       0.000000000000
      0.5148000000D+01 -0.1683669561D+00
      0.4962000000D+00  0.1060090723D+01
 S   1 1.00       0.000000000000
      0.1533000000D+00  0.1000000000D+01
 P   4 1.00       0.000000000000
      0.1816000000D+02  0.1853899981D-01
      0.3986000000D+01  0.1154359988D+00
      0.1143000000D+01  0.3861879960D+00
      0.3594000000D+00  0.6401139934D+00
 P   1 1.00       0.000000000000
      0.1146000000D+00  0.1000000000D+01
 ****
     30 0
 S   7 1.00       0.000000000000
      0.4233000000D+04  0.1219999687D-02
      0.6349000000D+03  0.9341997607D-02
      0.1461000000D+03  0.4545198836D-01
      0.4250000000D+02  0.1546569604D+00
      0.1419000000D+02  0.3588659081D+00
      0.5148000000D+01  0.4386318876D+00
      0.1967000000D+01  0.1459179626D+00
 S   2 1.00       0.000000000000
      0.5148000000D+01 -0.1683669561D+00
      0.4962000000D+00  0.1060090723D+01
 S   1 1.00       0.000000000000
      0.1533000000D+00  0.1000000000D+01
 P   4 1.00       0.000000000000
      0.1816000000D+02  0.1853899981D-01
      0.3986000000D+01  0.1154359988D+00
      0.1143000000D+01  0.3861879960D+00
      0.3594000000D+00  0.6401139934D+00
 P   1 1.00       0.000000000000
      0.1146000000D+00  0.1000000000D+01
 ****
     31 0
 S   3 1.00       0.000000000000
      0.1924060000D+02  0.3282807697D-01
      0.2899200000D+01  0.2312085421D+00
      0.6534000000D+00  0.8172399161D+00
 S   1 1.00       0.000000000000
      0.1776000000D+00  0.1000000000D+01
 ****
     32 0
 S   3 1.00       0.000000000000
      0.1924060000D+02  0.3282807697D-01
      0.2899200000D+01  0.2312085421D+00
      0.6534000000D+00  0.8172399161D+00
 S   1 1.00       0.000000000000
      0.1776000000D+00  0.1000000000D+01
 ****
     33 0
 S   3 1.00       0.000000000000
      0.1924060000D+02  0.3282807697D-01
      0.2899200000D+01  0.2312085421D+00
      0.6534000000D+00  0.8172399161D+00
 S   1 1.00       0.000000000000
      0.1776000000D+00  0.1000000000D+01
 ****
     34 0
 S   3 1.00       0.000000000000
      0.1924060000D+02  0.3282807697D-01
      0.2899200000D+01  0.2312085421D+00
      0.6534000000D+00  0.8172399161D+00
 S   1 1.00       0.000000000000
      0.1776000000D+00  0.1000000000D+01
 ****
     35 0
 S   3 1.00       0.000000000000
      0.1924060000D+02  0.3282807697D-01
      0.2899200000D+01  0.2312085421D+00
      0.6534000000D+00  0.8172399161D+00
 S   1 1.00       0.000000000000
      0.1776000000D+00  0.1000000000D+01
 ****
     36 0
 S   3 1.00       0.000000000000
      0.1924060000D+02  0.3282807697D-01
      0.2899200000D+01  0.2312085421D+00
      0.6534000000D+00  0.8172399161D+00
 S   1 1.00       0.000000000000
      0.1776000000D+00  0.1000000000D+01
 ****
     37 0
 S   3 1.00       0.000000000000
      0.1924060000D+02  0.3282807697D-01
      0.2899200000D+01  0.2312085421D+00
      0.6534000000D+00  0.8172399161D+00
 S   1 1.00       0.000000000000
      0.1776000000D+00  0.1000000000D+01
 ****
     38 0
 S   3 1.00       0.000000000000
      0.1924060000D+02  0.3282807697D-01
      0.2899200000D+01  0.2312085421D+00
      0.6534000000D+00  0.8172399161D+00
 S   1 1.00       0.000000000000
      0.1776000000D+00  0.1000000000D+01
 ****
     39 0
 S   3 1.00       0.000000000000
      0.1924060000D+02  0.3282807697D-01
      0.2899200000D+01  0.2312085421D+00
      0.6534000000D+00  0.8172399161D+00
 S   1 1.00       0.000000000000
      0.1776000000D+00  0.1000000000D+01
 ****
     40 0
 S   3 1.00       0.000000000000
      0.1924060000D+02  0.3282807697D-01
      0.2899200000D+01  0.2312085421D+00
      0.6534000000D+00  0.8172399161D+00
 S   1 1.00       0.000000000000
      0.1776000000D+00  0.1000000000D+01
 ****
     41 0
 S   3 1.00       0.000000000000
      0.1924060000D+02  0.3282807697D-01
      0.2899200000D+01  0.2312085421D+00
      0.6534000000D+00  0.8172399161D+00
 S   1 1.00       0.000000000000
      0.1776000000D+00  0.1000000000D+01
 ****
     42 0
 S   3 1.00       0.000000000000
      0.1924060000D+02  0.3282807697D-01
      0.2899200000D+01  0.2312085421D+00
      0.6534000000D+00  0.8172399161D+00
 S   1 1.00       0.000000000000
      0.1776000000D+00  0.1000000000D+01
 ****
     43 0
 S   3 1.00       0.000000000000
      0.1924060000D+02  0.3282807697D-01
      0.2899200000D+01  0.2312085421D+00
      0.6534000000D+00  0.8172399161D+00
 S   1 1.00       0.000000000000
      0.1776000000D+00  0.1000000000D+01
 ****
     44 0
 S   3 1.00       0.000000000000
      0.1924060000D+02  0.3282807697D-01
      0.2899200000D+01  0.2312085421D+00
      0.6534000000D+00  0.8172399161D+00
 S   1 1.00       0.000000000000
      0.1776000000D+00  0.1000000000D+01
 ****
     45 0
 S   3 1.00       0.000000000000
      0.1924060000D+02  0.3282807697D-01
      0.2899200000D+01  0.2312085421D+00
      0.6534000000D+00  0.8172399161D+00
 S   1 1.00       0.000000000000
      0.1776000000D+00  0.1000000000D+01
 ****
     46 0
 S   3 1.00       0.000000000000
      0.1924060000D+02  0.3282807697D-01
      0.2899200000D+01  0.2312085421D+00
      0.6534000000D+00  0.8172399161D+00
 S   1 1.00       0.000000000000
      0.1776000000D+00  0.1000000000D+01
 ****

 AO basis set (Overlap normalization):
 Atom C1       Shell     1 S   7     bf    1 -     1          0.000000000000          0.000000000000          6.906783633934
      0.4233000000D+04  0.1219999687D-02
      0.6349000000D+03  0.9341997607D-02
      0.1461000000D+03  0.4545198836D-01
      0.4250000000D+02  0.1546569604D+00
      0.1419000000D+02  0.3588659081D+00
      0.5148000000D+01  0.4386318876D+00
      0.1967000000D+01  0.1459179626D+00
 Atom C1       Shell     2 S   2     bf    2 -     2          0.000000000000          0.000000000000          6.906783633934
      0.5148000000D+01 -0.1683669561D+00
      0.4962000000D+00  0.1060090723D+01
 Atom C1       Shell     3 S   1     bf    3 -     3          0.000000000000          0.000000000000          6.906783633934
      0.1533000000D+00  0.1000000000D+01
 Atom C1       Shell     4 P   4     bf    4 -     6          0.000000000000          0.000000000000          6.906783633934
      0.1816000000D+02  0.1853899981D-01
      0.3986000000D+01  0.1154359988D+00
      0.1143000000D+01  0.3861879960D+00
      0.3594000000D+00  0.6401139934D+00
 Atom C1       Shell     5 P   1     bf    7 -     9          0.000000000000          0.000000000000          6.906783633934
      0.1146000000D+00  0.1000000000D+01
 Atom C2       Shell     6 S   7     bf   10 -    10          0.000000000000          2.384920874129          5.555997408660
      0.4233000000D+04  0.1219999687D-02
      0.6349000000D+03  0.9341997607D-02
      0.1461000000D+03  0.4545198836D-01
      0.4250000000D+02  0.1546569604D+00
      0.1419000000D+02  0.3588659081D+00
      0.5148000000D+01  0.4386318876D+00
      0.1967000000D+01  0.1459179626D+00
 Atom C2       Shell     7 S   2     bf   11 -    11          0.000000000000          2.384920874129          5.555997408660
      0.5148000000D+01 -0.1683669561D+00
      0.4962000000D+00  0.1060090723D+01
 Atom C2       Shell     8 S   1     bf   12 -    12          0.000000000000          2.384920874129          5.555997408660
      0.1533000000D+00  0.1000000000D+01
 Atom C2       Shell     9 P   4     bf   13 -    15          0.000000000000          2.384920874129          5.555997408660
      0.1816000000D+02  0.1853899981D-01
      0.3986000000D+01  0.1154359988D+00
      0.1143000000D+01  0.3861879960D+00
      0.3594000000D+00  0.6401139934D+00
 Atom C2       Shell    10 P   1     bf   16 -    18          0.000000000000          2.384920874129          5.555997408660
      0.1146000000D+00  0.1000000000D+01
 Atom C3       Shell    11 S   7     bf   19 -    19          0.000000000000          2.374796837053          2.751927664727
      0.4233000000D+04  0.1219999687D-02
      0.6349000000D+03  0.9341997607D-02
      0.1461000000D+03  0.4545198836D-01
      0.4250000000D+02  0.1546569604D+00
      0.1419000000D+02  0.3588659081D+00
      0.5148000000D+01  0.4386318876D+00
      0.1967000000D+01  0.1459179626D+00
 Atom C3       Shell    12 S   2     bf   20 -    20          0.000000000000          2.374796837053          2.751927664727
      0.5148000000D+01 -0.1683669561D+00
      0.4962000000D+00  0.1060090723D+01
 Atom C3       Shell    13 S   1     bf   21 -    21          0.000000000000          2.374796837053          2.751927664727
      0.1533000000D+00  0.1000000000D+01
 Atom C3       Shell    14 P   4     bf   22 -    24          0.000000000000          2.374796837053          2.751927664727
      0.1816000000D+02  0.1853899981D-01
      0.3986000000D+01  0.1154359988D+00
      0.1143000000D+01  0.3861879960D+00
      0.3594000000D+00  0.6401139934D+00
 Atom C3       Shell    15 P   1     bf   25 -    27          0.000000000000          2.374796837053          2.751927664727
      0.1146000000D+00  0.1000000000D+01
 Atom C4       Shell    16 S   7     bf   28 -    28          0.000000000000          0.000000000000          1.380399898311
      0.4233000000D+04  0.1219999687D-02
      0.6349000000D+03  0.9341997607D-02
      0.1461000000D+03  0.4545198836D-01
      0.4250000000D+02  0.1546569604D+00
      0.1419000000D+02  0.3588659081D+00
      0.5148000000D+01  0.4386318876D+00
      0.1967000000D+01  0.1459179626D+00
 Atom C4       Shell    17 S   2     bf   29 -    29          0.000000000000          0.000000000000          1.380399898311
      0.5148000000D+01 -0.1683669561D+00
      0.4962000000D+00  0.1060090723D+01
 Atom C4       Shell    18 S   1     bf   30 -    30          0.000000000000          0.000000000000          1.380399898311
      0.1533000000D+00  0.1000000000D+01
 Atom C4       Shell    19 P   4     bf   31 -    33          0.000000000000          0.000000000000          1.380399898311
      0.1816000000D+02  0.1853899981D-01
      0.3986000000D+01  0.1154359988D+00
      0.1143000000D+01  0.3861879960D+00
      0.3594000000D+00  0.6401139934D+00
 Atom C4       Shell    20 P   1     bf   34 -    36          0.000000000000          0.000000000000          1.380399898311
      0.1146000000D+00  0.1000000000D+01
 Atom C5       Shell    21 S   7     bf   37 -    37          0.000000000000         -2.374796837053          2.751927664727
      0.4233000000D+04  0.1219999687D-02
      0.6349000000D+03  0.9341997607D-02
      0.1461000000D+03  0.4545198836D-01
      0.4250000000D+02  0.1546569604D+00
      0.1419000000D+02  0.3588659081D+00
      0.5148000000D+01  0.4386318876D+00
      0.1967000000D+01  0.1459179626D+00
 Atom C5       Shell    22 S   2     bf   38 -    38          0.000000000000         -2.374796837053          2.751927664727
      0.5148000000D+01 -0.1683669561D+00
      0.4962000000D+00  0.1060090723D+01
 Atom C5       Shell    23 S   1     bf   39 -    39          0.000000000000         -2.374796837053          2.751927664727
      0.1533000000D+00  0.1000000000D+01
 Atom C5       Shell    24 P   4     bf   40 -    42          0.000000000000         -2.374796837053          2.751927664727
      0.1816000000D+02  0.1853899981D-01
      0.3986000000D+01  0.1154359988D+00
      0.1143000000D+01  0.3861879960D+00
      0.3594000000D+00  0.6401139934D+00
 Atom C5       Shell    25 P   1     bf   43 -    45          0.000000000000         -2.374796837053          2.751927664727
      0.1146000000D+00  0.1000000000D+01
 Atom C6       Shell    26 S   7     bf   46 -    46          0.000000000000         -2.384920874129          5.555997408660
      0.4233000000D+04  0.1219999687D-02
      0.6349000000D+03  0.9341997607D-02
      0.1461000000D+03  0.4545198836D-01
      0.4250000000D+02  0.1546569604D+00
      0.1419000000D+02  0.3588659081D+00
      0.5148000000D+01  0.4386318876D+00
      0.1967000000D+01  0.1459179626D+00
 Atom C6       Shell    27 S   2     bf   47 -    47          0.000000000000         -2.384920874129          5.555997408660
      0.5148000000D+01 -0.1683669561D+00
      0.4962000000D+00  0.1060090723D+01
 Atom C6       Shell    28 S   1     bf   48 -    48          0.000000000000         -2.384920874129          5.555997408660
      0.1533000000D+00  0.1000000000D+01
 Atom C6       Shell    29 P   4     bf   49 -    51          0.000000000000         -2.384920874129          5.555997408660
      0.1816000000D+02  0.1853899981D-01
      0.3986000000D+01  0.1154359988D+00
      0.1143000000D+01  0.3861879960D+00
      0.3594000000D+00  0.6401139934D+00
 Atom C6       Shell    30 P   1     bf   52 -    54          0.000000000000         -2.384920874129          5.555997408660
      0.1146000000D+00  0.1000000000D+01
 Atom C7       Shell    31 S   7     bf   55 -    55          0.000000000000          4.645704045024          1.331976343514
      0.4233000000D+04  0.1219999687D-02
      0.6349000000D+03  0.9341997607D-02
      0.1461000000D+03  0.4545198836D-01
      0.4250000000D+02  0.1546569604D+00
      0.1419000000D+02  0.3588659081D+00
      0.5148000000D+01  0.4386318876D+00
      0.1967000000D+01  0.1459179626D+00
 Atom C7       Shell    32 S   2     bf   56 -    56          0.000000000000          4.645704045024          1.331976343514
      0.5148000000D+01 -0.1683669561D+00
      0.4962000000D+00  0.1060090723D+01
 Atom C7       Shell    33 S   1     bf   57 -    57          0.000000000000          4.645704045024          1.331976343514
      0.1533000000D+00  0.1000000000D+01
 Atom C7       Shell    34 P   4     bf   58 -    60          0.000000000000          4.645704045024          1.331976343514
      0.1816000000D+02  0.1853899981D-01
      0.3986000000D+01  0.1154359988D+00
      0.1143000000D+01  0.3861879960D+00
      0.3594000000D+00  0.6401139934D+00
 Atom C7       Shell    35 P   1     bf   61 -    63          0.000000000000          4.645704045024          1.331976343514
      0.1146000000D+00  0.1000000000D+01
 Atom C8       Shell    36 S   7     bf   64 -    64          0.000000000000          0.000000000000         -1.380399898311
      0.4233000000D+04  0.1219999687D-02
      0.6349000000D+03  0.9341997607D-02
      0.1461000000D+03  0.4545198836D-01
      0.4250000000D+02  0.1546569604D+00
      0.1419000000D+02  0.3588659081D+00
      0.5148000000D+01  0.4386318876D+00
      0.1967000000D+01  0.1459179626D+00
 Atom C8       Shell    37 S   2     bf   65 -    65          0.000000000000          0.000000000000         -1.380399898311
      0.5148000000D+01 -0.1683669561D+00
      0.4962000000D+00  0.1060090723D+01
 Atom C8       Shell    38 S   1     bf   66 -    66          0.000000000000          0.000000000000         -1.380399898311
      0.1533000000D+00  0.1000000000D+01
 Atom C8       Shell    39 P   4     bf   67 -    69          0.000000000000          0.000000000000         -1.380399898311
      0.1816000000D+02  0.1853899981D-01
      0.3986000000D+01  0.1154359988D+00
      0.1143000000D+01  0.3861879960D+00
      0.3594000000D+00  0.6401139934D+00
 Atom C8       Shell    40 P   1     bf   70 -    72          0.000000000000          0.000000000000         -1.380399898311
      0.1146000000D+00  0.1000000000D+01
 Atom C9       Shell    41 S   7     bf   73 -    73          0.000000000000          2.374796837053         -2.751927664727
      0.4233000000D+04  0.1219999687D-02
      0.6349000000D+03  0.9341997607D-02
      0.1461000000D+03  0.4545198836D-01
      0.4250000000D+02  0.1546569604D+00
      0.1419000000D+02  0.3588659081D+00
      0.5148000000D+01  0.4386318876D+00
      0.1967000000D+01  0.1459179626D+00
 Atom C9       Shell    42 S   2     bf   74 -    74          0.000000000000          2.374796837053         -2.751927664727
      0.5148000000D+01 -0.1683669561D+00
      0.4962000000D+00  0.1060090723D+01
 Atom C9       Shell    43 S   1     bf   75 -    75          0.000000000000          2.374796837053         -2.751927664727
      0.1533000000D+00  0.1000000000D+01
 Atom C9       Shell    44 P   4     bf   76 -    78          0.000000000000          2.374796837053         -2.751927664727
      0.1816000000D+02  0.1853899981D-01
      0.3986000000D+01  0.1154359988D+00
      0.1143000000D+01  0.3861879960D+00
      0.3594000000D+00  0.6401139934D+00
 Atom C9       Shell    45 P   1     bf   79 -    81          0.000000000000          2.374796837053         -2.751927664727
      0.1146000000D+00  0.1000000000D+01
 Atom C10      Shell    46 S   7     bf   82 -    82          0.000000000000          4.645704045024         -1.331976343514
      0.4233000000D+04  0.1219999687D-02
      0.6349000000D+03  0.9341997607D-02
      0.1461000000D+03  0.4545198836D-01
      0.4250000000D+02  0.1546569604D+00
      0.1419000000D+02  0.3588659081D+00
      0.5148000000D+01  0.4386318876D+00
      0.1967000000D+01  0.1459179626D+00
 Atom C10      Shell    47 S   2     bf   83 -    83          0.000000000000          4.645704045024         -1.331976343514
      0.5148000000D+01 -0.1683669561D+00
      0.4962000000D+00  0.1060090723D+01
 Atom C10      Shell    48 S   1     bf   84 -    84          0.000000000000          4.645704045024         -1.331976343514
      0.1533000000D+00  0.1000000000D+01
 Atom C10      Shell    49 P   4     bf   85 -    87          0.000000000000          4.645704045024         -1.331976343514
      0.1816000000D+02  0.1853899981D-01
      0.3986000000D+01  0.1154359988D+00
      0.1143000000D+01  0.3861879960D+00
      0.3594000000D+00  0.6401139934D+00
 Atom C10      Shell    50 P   1     bf   88 -    90          0.000000000000          4.645704045024         -1.331976343514
      0.1146000000D+00  0.1000000000D+01
 Atom C11      Shell    51 S   7     bf   91 -    91          0.000000000000          2.384920874129         -5.555997408660
      0.4233000000D+04  0.1219999687D-02
      0.6349000000D+03  0.9341997607D-02
      0.1461000000D+03  0.4545198836D-01
      0.4250000000D+02  0.1546569604D+00
      0.1419000000D+02  0.3588659081D+00
      0.5148000000D+01  0.4386318876D+00
      0.1967000000D+01  0.1459179626D+00
 Atom C11      Shell    52 S   2     bf   92 -    92          0.000000000000          2.384920874129         -5.555997408660
      0.5148000000D+01 -0.1683669561D+00
      0.4962000000D+00  0.1060090723D+01
 Atom C11      Shell    53 S   1     bf   93 -    93          0.000000000000          2.384920874129         -5.555997408660
      0.1533000000D+00  0.1000000000D+01
 Atom C11      Shell    54 P   4     bf   94 -    96          0.000000000000          2.384920874129         -5.555997408660
      0.1816000000D+02  0.1853899981D-01
      0.3986000000D+01  0.1154359988D+00
      0.1143000000D+01  0.3861879960D+00
      0.3594000000D+00  0.6401139934D+00
 Atom C11      Shell    55 P   1     bf   97 -    99          0.000000000000          2.384920874129         -5.555997408660
      0.1146000000D+00  0.1000000000D+01
 Atom C12      Shell    56 S   7     bf  100 -   100          0.000000000000          0.000000000000         -6.906783633934
      0.4233000000D+04  0.1219999687D-02
      0.6349000000D+03  0.9341997607D-02
      0.1461000000D+03  0.4545198836D-01
      0.4250000000D+02  0.1546569604D+00
      0.1419000000D+02  0.3588659081D+00
      0.5148000000D+01  0.4386318876D+00
      0.1967000000D+01  0.1459179626D+00
 Atom C12      Shell    57 S   2     bf  101 -   101          0.000000000000          0.000000000000         -6.906783633934
      0.5148000000D+01 -0.1683669561D+00
      0.4962000000D+00  0.1060090723D+01
 Atom C12      Shell    58 S   1     bf  102 -   102          0.000000000000          0.000000000000         -6.906783633934
      0.1533000000D+00  0.1000000000D+01
 Atom C12      Shell    59 P   4     bf  103 -   105          0.000000000000          0.000000000000         -6.906783633934
      0.1816000000D+02  0.1853899981D-01
      0.3986000000D+01  0.1154359988D+00
      0.1143000000D+01  0.3861879960D+00
      0.3594000000D+00  0.6401139934D+00
 Atom C12      Shell    60 P   1     bf  106 -   108          0.000000000000          0.000000000000         -6.906783633934
      0.1146000000D+00  0.1000000000D+01
 Atom C13      Shell    61 S   7     bf  109 -   109          0.000000000000         -2.384920874129         -5.555997408660
      0.4233000000D+04  0.1219999687D-02
      0.6349000000D+03  0.9341997607D-02
      0.1461000000D+03  0.4545198836D-01
      0.4250000000D+02  0.1546569604D+00
      0.1419000000D+02  0.3588659081D+00
      0.5148000000D+01  0.4386318876D+00
      0.1967000000D+01  0.1459179626D+00
 Atom C13      Shell    62 S   2     bf  110 -   110          0.000000000000         -2.384920874129         -5.555997408660
      0.5148000000D+01 -0.1683669561D+00
      0.4962000000D+00  0.1060090723D+01
 Atom C13      Shell    63 S   1     bf  111 -   111          0.000000000000         -2.384920874129         -5.555997408660
      0.1533000000D+00  0.1000000000D+01
 Atom C13      Shell    64 P   4     bf  112 -   114          0.000000000000         -2.384920874129         -5.555997408660
      0.1816000000D+02  0.1853899981D-01
      0.3986000000D+01  0.1154359988D+00
      0.1143000000D+01  0.3861879960D+00
      0.3594000000D+00  0.6401139934D+00
 Atom C13      Shell    65 P   1     bf  115 -   117          0.000000000000         -2.384920874129         -5.555997408660
      0.1146000000D+00  0.1000000000D+01
[...]
   2         O               -10.331627         15.972051
   3         O               -10.331265         15.971337
   4         O               -10.331264         15.971610
   5         O               -10.331262         15.971396
   6         O               -10.331261         15.971940
   7         O               -10.330727         15.972490
   8         O               -10.330708         15.972658
   9         O               -10.330652         15.973247
  10         O               -10.330642         15.973595
  11         O               -10.328433         15.971700
  12         O               -10.328431         15.971767
  13         O               -10.327508         15.972203
  14         O               -10.327507         15.972305
  15         O               -10.316328         15.970502
  16         O               -10.316325         15.970551
  17         O               -10.316323         15.970549
  18         O               -10.316317         15.970791
  19         O               -10.315229         15.969410
  20         O               -10.315224         15.969400
  21         O               -10.315007         15.971900
  22         O               -10.315006         15.971896
  23         O               -10.314998         15.971959
  24         O               -10.314998         15.971946
  25         O               -10.314877         15.972442
  26         O               -10.314876         15.972443
  27         O               -10.314872         15.972659
  28         O               -10.314867         15.972805
  29         O               -10.314726         15.972892
  30         O               -10.314725         15.972919
  31         O                -1.001678          1.437510
  32         O                -0.986759          1.451978
  33         O                -0.965736          1.473172
  34         O                -0.945837          1.488163
  35         O                -0.931358          1.497072
  36         O                -0.923431          1.515713
  37         O                -0.914840          1.510618
  38         O                -0.882730          1.563350
  39         O                -0.865983          1.592407
  40         O                -0.856880          1.560306
  41         O                -0.847811          1.596329
  42         O                -0.839783          1.652971
  43         O                -0.838082          1.672114
  44         O                -0.828832          1.629519
  45         O                -0.785623          1.679736
  46         O                -0.753323          1.557944
  47         O                -0.741484          1.387707
  48         O                -0.736396          1.434610
  49         O                -0.725136          1.491887
  50         O                -0.713911          1.480813
  51         O                -0.708037          1.429277
  52         O                -0.685209          1.588541
  53         O                -0.683017          1.500861
  54         O                -0.637718          1.447057
  55         O                -0.634420          1.069844
  56         O                -0.625811          1.534676
  57         O                -0.609852          1.457814
  58         O                -0.605684          1.204480
  59         O                -0.601214          1.183614
  60         O                -0.588453          1.174291
  61         O                -0.578071          1.486901
  62         O                -0.570003          1.199359
  63         O                -0.557218          1.243361
  64         O                -0.550885          1.272854
  65         O                -0.549964          1.510732
  66         O                -0.530857          1.356936
  67         O                -0.526962          1.406863
  68         O                -0.512669          0.866315
  69         O                -0.511760          1.410247
  70         O                -0.509851          1.408695
  71         O                -0.509078          1.468582
  72         O                -0.505653          1.248028
  73         O                -0.497038          1.410230
  74         O                -0.493679          0.893161
  75         O                -0.490943          1.487712
  76         O                -0.474794          1.427759
  77         O                -0.472673          1.448308
  78         O                -0.467206          1.360386
  79         O                -0.465859          0.938198
  80         O                -0.465793          1.405468
  81         O                -0.461765          1.394672
  82         O                -0.445073          1.462159
  83         O                -0.443776          0.961138
  84         O                -0.425586          0.986421
  85         O                -0.424153          1.531049
  86         O                -0.420598          1.545203
  87         O                -0.415920          1.014301
  88         O                -0.403331          1.645002
  89         O                -0.402269          1.022798
  90         O                -0.399724          1.612874
  91         O                -0.366453          1.102332
  92         O                -0.346085          1.124303
  93         O                -0.328579          1.134747
  94         O                -0.323730          1.150143
  95         O                -0.322047          1.171608
  96         O                -0.317781          1.213496
  97         O                -0.294657          1.197404
  98         O                -0.231713          1.299684
  99         V                -0.044151          1.300827
 100         V                 0.018612          1.356177
 101         V                 0.033541          1.243928
 102         V                 0.033563          1.347609
 103         V                 0.046875          1.352725
 104         V                 0.060841          1.478213
 105         V                 0.071222          1.419119
 106         V                 0.089802          1.405510
 107         V                 0.133418          1.382589
 108         V                 0.154789          1.528825
 109         V                 0.172641          1.533543
 110         V                 0.189229          1.239522
 111         V                 0.195962          1.234403
 112         V                 0.206440          1.693028
 113         V                 0.206779          1.256453
 114         V                 0.209440          1.264341
 115         V                 0.217250          1.180644
 116         V                 0.222386          1.147795
 117         V                 0.229056          1.160748
 118         V                 0.229383          1.659463
 119         V                 0.230446          1.190937
 120         V                 0.231196          1.176002
 121         V                 0.231213          1.362133
 122         V                 0.250532          0.945211
 123         V                 0.253699          1.191298
 124         V                 0.261208          1.212066
 125         V                 0.274956          1.180946
 126         V                 0.277457          1.278897
 127         V                 0.281081          1.806834
 128         V                 0.282316          1.212514
 129         V                 0.285531          1.110296
 130         V                 0.287029          1.440685
 131         V                 0.287231          1.158368
 132         V                 0.297631          0.927980
 133         V                 0.301456          1.244835
 134         V                 0.310449          1.706072
 135         V                 0.315908          1.752783
 136         V                 0.321682          1.245473
 137         V                 0.323982          1.169949
 138         V                 0.324363          2.039434
 139         V                 0.324928          1.218345
 140         V                 0.327927          1.101771
 141         V                 0.331394          0.984071
 142         V                 0.345057          1.268020
 143         V                 0.354642          1.393193
 144         V                 0.360439          1.282009
 145         V                 0.361805          1.193203
 146         V                 0.370502          1.821291
 147         V                 0.371989          1.305479
 148         V                 0.376065          1.430686
 149         V                 0.378244          1.542818
 150         V                 0.383472          1.290342
 151         V                 0.383773          1.250057
 152         V                 0.385680          1.910309
 153         V                 0.386422          1.313660
 154         V                 0.390000          1.331225
 155         V                 0.398530          1.714707
 156         V                 0.400813          1.361639
 157         V                 0.412234          1.389868
 158         V                 0.414961          1.692713
 159         V                 0.423063          1.343651
 160         V                 0.428174          1.980748
 161         V                 0.431777          2.039341
 162         V                 0.434644          1.378528
 163         V                 0.437742          1.806908
 164         V                 0.439607          1.395683
 165         V                 0.444839          1.436902
 166         V                 0.447173          1.466493
 167         V                 0.450869          1.474798
 168         V                 0.452857          1.358733
 169         V                 0.454106          1.666127
 170         V                 0.456710          1.479018
 171         V                 0.457297          1.255879
 172         V                 0.460563          1.680268
 173         V                 0.465582          1.686181
 174         V                 0.465700          1.507516
 175         V                 0.466063          1.508774
 176         V                 0.471379          1.791192
 177         V                 0.477173          2.380217
 178         V                 0.483187          1.672900
 179         V                 0.487137          1.456139
 180         V                 0.487451          2.037003
 181         V                 0.490390          1.310486
 182         V                 0.496258          1.996336
 183         V                 0.496862          2.251690
 184         V                 0.498102          1.851901
 185         V                 0.500203          1.464945
 186         V                 0.506841          2.302792
 187         V                 0.513205          1.584310
 188         V                 0.513657          2.137118
 189         V                 0.518268          1.491024
 190         V                 0.523370          2.137455
 191         V                 0.526857          2.470995
 192         V                 0.527888          2.427008
 193         V                 0.529784          2.205484
 194         V                 0.533782          1.622380
 195         V                 0.540919          1.547094
 196         V                 0.541418          2.238215
 197         V                 0.554517          1.571602
 198         V                 0.561477          2.148572
 199         V                 0.562530          2.494390
 200         V                 0.565184          1.566179
 201         V                 0.566451          2.206755
 202         V                 0.568365          1.579197
 203         V                 0.590799          1.996266
 204         V                 0.599899          1.621250
 205         V                 0.600378          1.595374
 206         V                 0.609501          1.677889
 207         V                 0.614087          2.046505
 208         V                 0.614239          1.608992
 209         V                 0.620138          2.360255
 210         V                 0.631015          1.623237
 211         V                 0.631906          2.326638
 212         V                 0.643120          2.855675
 213         V                 0.653707          2.480767
 214         V                 0.657270          1.615020
 215         V                 0.662537          1.783701
 216         V                 0.688911          2.632756
 217         V                 0.689603          1.647319
 218         V                 0.694330          2.430823
 219         V                 0.702115          1.649836
 220         V                 0.702988          2.069280
 221         V                 0.715894          2.506402
 222         V                 0.722356          2.146750
 223         V                 0.730036          2.574408
 224         V                 0.731174          1.674606
 225         V                 0.745707          2.455444
 226         V                 0.747910          2.868140
 227         V                 0.759187          2.911200
 228         V                 0.759924          3.343456
 229         V                 0.777743          2.698432
 230         V                 0.786105          1.670707
 231         V                 0.791716          3.096205
 232         V                 0.793746          3.479389
 233         V                 0.795331          2.852132
 234         V                 0.800126          1.896625
 235         V                 0.803954          2.884721
 236         V                 0.815156          2.602894
 237         V                 0.825720          2.554963
 238         V                 0.828007          3.221181
 239         V                 0.838898          3.611053
 240         V                 0.845566          1.676275
 241         V                 0.865105          1.838690
 242         V                 0.867335          1.837601
 243         V                 0.869684          2.828299
 244         V                 0.895800          1.749454
 245         V                 0.896868          2.305387
 246         V                 0.899963          2.448878
 247         V                 0.958829          2.247537
 248         V                 0.976005          2.490538
 249         V                 0.991665          2.178419
 250         V                 0.994384          2.157492
 251         V                 1.038304          2.313426
 252         V                 1.076054          2.196351
 253         V                 1.091685          2.360405
 254         V                 1.099413          2.273091
 255         V                 1.127214          2.314313
 256         V                 1.187931          2.718898
 257         V                 1.195454          2.691636
 258         V                 1.201240          2.793247
 259         V                 1.203309          2.774383
 260         V                 1.203492          2.825214
 261         V                 1.212649          2.765756
 262         V                 1.224837          2.715773
 263         V                 1.238410          2.754695
 264         V                 1.241241          2.695865
 265         V                 1.243288          2.681294
 266         V                 1.253869          2.637978
 267         V                 1.268121          2.675310
 268         V                 1.268132          2.660540
 269         V                 1.288504          2.567085
 270         V                 1.292475          2.536572
 271         V                 1.304721          2.511666
 272         V                 1.340196          2.372297
 273         V                 1.344668          2.397287
 274         V                 1.368916          2.436275
 275         V                 1.376139          2.382633
 276         V                 1.405606          2.449172
 277         V                 1.420782          2.448032
 278         V                 1.432193          2.577575
 279         V                 1.452535          2.740518
 280         V                 1.467591          2.525304
 281         V                 1.473434          2.839137
 282         V                 1.542625          2.589967
 283         V                 1.553334          2.623518
 284         V                 1.553756          2.597305
 285         V                 1.568146          2.565960
 286         V                 1.570226          2.611244
 287         V                 1.585427          2.628615
 288         V                 1.644667          2.684333
 289         V                 1.654864          2.734444
 290         V                 1.659268          2.713337
 291         V                 1.693605          2.728771
 292         V                 1.711967          2.768859
 293         V                 1.725932          2.752853
 294         V                 1.727033          2.830878
 295         V                 1.727408          2.744353
 296         V                 1.736502          2.803853
 297         V                 1.752145          2.799552
 298         V                 1.757435          2.818962
 299         V                 1.760892          2.747491
 300         V                 1.801728          2.815543
 301         V                 1.831233          2.849911
 302         V                 1.926577          2.948001
 Total kinetic energy from orbitals= 1.144474993338D+03
 No NMR shielding tensors so no spin-rotation constants.
 Leave Link  601 at Tue May 30 17:23:18 2017, MaxMem=  2684354560 cpu:         6.1
 (Enter /shared/software/g09/l9999.exe)

 Test job not archived.
 1\1\GINC-ARTHUR\SP\RwB97XD TD-FC\LANL2DZ\C30H16\SLAMAV\30-May-2017\0\\
 #p wB97XD/LANL2DZ TD=(Singlets,NStates=10,Root=1) DENSITY scf=(Tight,M
 axCycle=400) Geom=Checkpoint Guess=read NoSymm GFPrint GFInput IOp(6/7
 =3) IOp(9/40=3)\\Extended perylene excited state calculation\\0,1\C,0,
 0.,0.,3.6549124837\C,0,0.,1.2620457709,2.9401071996\C,0,0.,1.256688361
 2,1.4562573999\C,0,0.,0.,0.7304761649\C,0,0.,-1.2566883612,1.456257399
 9\C,0,0.,-1.2620457709,2.9401071996\C,0,0.,2.4584006985,0.7048515234\C
 ,0,0.,0.,-0.7304761649\C,0,0.,1.2566883612,-1.4562573999\C,0,0.,2.4584
 006985,-0.7048515234\C,0,0.,1.2620457709,-2.9401071996\C,0,0.,0.,-3.65
 49124837\C,0,0.,-1.2620457709,-2.9401071996\C,0,0.,-1.2566883612,-1.45
 62573999\C,0,0.,-2.4584006985,-0.7048515234\C,0,0.,-2.4584006985,0.704
 8515234\C,0,0.,0.,-5.1109191624\C,0,0.,2.4651619482,-3.6924730627\C,0,
 0.,-2.4651619482,-3.6924730627\C,0,0.,2.4651619482,3.6924730627\C,0,0.
 ,0.,5.1109191624\C,0,0.,-2.4651619482,3.6924730627\C,0,0.,2.4602840398
 ,-5.1165835048\C,0,0.,-1.2491220825,-5.8216488665\C,0,0.,-2.4602840398
 ,-5.1165835048\C,0,0.,2.4602840398,5.1165835048\C,0,0.,1.2491220825,5.
 8216488665\C,0,0.,-2.4602840398,5.1165835048\C,0,0.,1.2491220825,-5.82
 16488665\C,0,0.,-1.2491220825,5.8216488665\H,0,0.,1.2376951134,-6.9171
 520753\H,0,0.,-1.2376951134,-6.9171520753\H,0,0.,1.2376951134,6.917152
 0753\H,0,0.,-1.2376951134,6.9171520753\H,0,0.,3.4130502889,-5.65646895
 51\H,0,0.,-3.4130502889,-5.6564689551\H,0,0.,3.4130502889,5.6564689551
 \H,0,0.,-3.4130502889,5.6564689551\H,0,0.,3.4324694771,-3.1853752491\H
 ,0,0.,-3.4324694771,-3.1853752491\H,0,0.,3.4324694771,3.1853752491\H,0
 ,0.,-3.4324694771,3.1853752491\H,0,0.,3.4240744031,-1.2145455047\H,0,0
 .,3.4240744031,1.2145455047\H,0,0.,-3.4240744031,-1.2145455047\H,0,0.,
 -3.4240744031,1.2145455047\\Version=EM64L-G09RevD.01\HF=-1152.346406\R
 MSD=2.991e-09\Dipole=0.,0.,0.\Quadrupole=-22.2215155,9.9181186,12.3033
 97,0.,0.,0.\PG=D02H [C2"(C1C1C1.C1C1C1),SG(C24H16)]\\@


 A FOOL CAN ASK MORE QUESTIONS THAN
 A WISE MAN CAN ANSWER.
 Job cpu time:       0 days  1 hours 34 minutes 29.0 seconds.
 File lengths (MBytes):  RWF=    357 Int=      0 D2E=      0 Chk=     44 Scr=      1
 Normal termination of Gaussian 09 at Tue May 30 17:23:19 2017.
