Extended perylene excited state calculation                             
SP        RwB97XD TD-FC                                               LANL2DZ             
Number of atoms                            I               46
Info1-9                                    I   N=           9
          12          11           0           0           0         111
           1         218        -801
Charge                                     I                0
Multiplicity                               I                1
Number of electrons                        I              196
Number of alpha electrons                  I               98
Number of beta electrons                   I               98
Number of basis functions                  I              302
Number of independent functions            I              302
Number of point charges in /Mol/           I                0
Number of translation vectors              I                0
Atomic numbers                             I   N=          46
           6           6           6           6           6           6
           6           6           6           6           6           6
           6           6           6           6           6           6
           6           6           6           6           6           6
           6           6           6           6           6           6
           1           1           1           1           1           1
           1           1           1           1           1           1
           1           1           1           1
Nuclear charges                            R   N=          46
  6.00000000E+00  6.00000000E+00  6.00000000E+00  6.00000000E+00  6.00000000E+00
  6.00000000E+00  6.00000000E+00  6.00000000E+00  6.00000000E+00  6.00000000E+00
  6.00000000E+00  6.00000000E+00  6.00000000E+00  6.00000000E+00  6.00000000E+00
  6.00000000E+00  6.00000000E+00  6.00000000E+00  6.00000000E+00  6.00000000E+00
  6.00000000E+00  6.00000000E+00  6.00000000E+00  6.00000000E+00  6.00000000E+00
  6.00000000E+00  6.00000000E+00  6.00000000E+00  6.00000000E+00  6.00000000E+00
  1.00000000E+00  1.00000000E+00  1.00000000E+00  1.00000000E+00  1.00000000E+00
  1.00000000E+00  1.00000000E+00  1.00000000E+00  1.00000000E+00  1.00000000E+00
  1.00000000E+00  1.00000000E+00  1.00000000E+00  1.00000000E+00  1.00000000E+00
  1.00000000E+00
Current cartesian coordinates              R   N=         138
 -2.19172025E-14 -1.31380231E-14  6.90678363E+00 -1.75000542E-14  2.38492087E+00
  5.55599741E+00 -8.99578914E-15  2.37479684E+00  2.75192766E+00 -5.15394807E-15
 -2.66929469E-15  1.38039990E+00 -9.63265439E-15 -2.37479684E+00  2.75192766E+00
 -1.81396345E-14 -2.38492087E+00  5.55599741E+00 -4.38412939E-15  4.64570405E+00
  1.33197634E+00  3.22042321E-15  2.56053815E-15 -1.38039990E+00  7.69912953E-15
  2.37479684E+00 -2.75192766E+00  3.69647425E-15  4.64570405E+00 -1.33197634E+00
  1.62061096E-14  2.38492087E+00 -5.55599741E+00  1.99836776E-14  1.30292665E-14
 -6.90678363E+00  1.55665294E-14 -2.38492087E+00 -5.55599741E+00  7.06226428E-15
 -2.37479684E+00 -2.75192766E+00  2.45060453E-15 -4.64570405E+00 -1.33197634E+00
 -5.62999911E-15 -4.64570405E+00  1.33197634E+00  2.83296998E-14  1.82413952E-14
 -9.65823750E+00  2.08236279E-14  4.65848096E+00 -6.97776284E+00  1.95743317E-14
 -4.65848096E+00 -6.97776284E+00 -2.15078565E-14  4.65848096E+00  6.97776284E+00
 -3.02632246E-14 -1.83501518E-14  9.65823750E+00 -2.27571527E-14 -4.65848096E+00
  6.97776284E+00  2.89855806E-14  4.64926304E+00 -9.66894156E+00  3.20871807E-14
 -2.36049864E+00 -1.10013220E+01  2.77387564E-14 -4.64926304E+00 -9.66894156E+00
 -2.96722813E-14  4.64926304E+00  9.66894156E+00 -3.40207055E-14  2.36049864E+00
  1.10013220E+01 -3.09191055E-14 -4.64926304E+00  9.66894156E+00  3.27202115E-14
  2.36049864E+00 -1.10013220E+01 -3.46537364E-14 -2.36049864E+00  1.10013220E+01
  3.89968848E-14  2.33890480E+00 -1.30715230E+01  3.83696449E-14 -2.33890480E+00
 -1.30715230E+01 -4.03031698E-14  2.33890480E+00  1.30715230E+01 -4.09304096E-14
 -2.33890480E+00  1.30715230E+01  3.23216969E-14  6.44973032E+00 -1.06891772E+01
  3.05920293E-14 -6.44973032E+00 -1.06891772E+01 -3.25255541E-14  6.44973032E+00
  1.06891772E+01 -3.42552217E-14 -6.44973032E+00  1.06891772E+01  1.81619827E-14
  6.48642727E+00 -6.01948685E+00  1.64224739E-14 -6.48642727E+00 -6.01948685E+00
 -1.83559987E-14  6.48642727E+00  6.01948685E+00 -2.00955076E-14 -6.48642727E+00
  6.01948685E+00  6.86279966E-15  6.47056288E+00 -2.29515838E+00 -7.06107013E-15
  6.47056288E+00  2.29515838E+00  5.12754527E-15 -6.47056288E+00 -2.29515838E+00
 -8.79632452E-15 -6.47056288E+00  2.29515838E+00
Force Field                                I                0
Int Atom Types                             I   N=          46
           0           0           0           0           0           0
           0           0           0           0           0           0
           0           0           0           0           0           0
           0           0           0           0           0           0
           0           0           0           0           0           0
           0           0           0           0           0           0
           0           0           0           0           0           0
           0           0           0           0
MM charges                                 R   N=          46
  0.00000000E+00  0.00000000E+00  0.00000000E+00  0.00000000E+00  0.00000000E+00
  0.00000000E+00  0.00000000E+00  0.00000000E+00  0.00000000E+00  0.00000000E+00
  0.00000000E+00  0.00000000E+00  0.00000000E+00  0.00000000E+00  0.00000000E+00
  0.00000000E+00  0.00000000E+00  0.00000000E+00  0.00000000E+00  0.00000000E+00
  0.00000000E+00  0.00000000E+00  0.00000000E+00  0.00000000E+00  0.00000000E+00
  0.00000000E+00  0.00000000E+00  0.00000000E+00  0.00000000E+00  0.00000000E+00
  0.00000000E+00  0.00000000E+00  0.00000000E+00  0.00000000E+00  0.00000000E+00
  0.00000000E+00  0.00000000E+00  0.00000000E+00  0.00000000E+00  0.00000000E+00
  0.00000000E+00  0.00000000E+00  0.00000000E+00  0.00000000E+00  0.00000000E+00
  0.00000000E+00
Integer atomic weights                     I   N=          46
          12          12          12          12          12          12
          12          12          12          12          12          12
          12          12          12          12          12          12
          12          12          12          12          12          12
          12          12          12          12          12          12
           1           1           1           1           1           1
           1           1           1           1           1           1
           1           1           1           1
Real atomic weights                        R   N=          46
  1.20000000E+01  1.20000000E+01  1.20000000E+01  1.20000000E+01  1.20000000E+01
  1.20000000E+01  1.20000000E+01  1.20000000E+01  1.20000000E+01  1.20000000E+01
  1.20000000E+01  1.20000000E+01  1.20000000E+01  1.20000000E+01  1.20000000E+01
  1.20000000E+01  1.20000000E+01  1.20000000E+01  1.20000000E+01  1.20000000E+01
  1.20000000E+01  1.20000000E+01  1.20000000E+01  1.20000000E+01  1.20000000E+01
  1.20000000E+01  1.20000000E+01  1.20000000E+01  1.20000000E+01  1.20000000E+01
  1.00782504E+00  1.00782504E+00  1.00782504E+00  1.00782504E+00  1.00782504E+00
  1.00782504E+00  1.00782504E+00  1.00782504E+00  1.00782504E+00  1.00782504E+00
  1.00782504E+00  1.00782504E+00  1.00782504E+00  1.00782504E+00  1.00782504E+00
  1.00782504E+00
Atom fragment info                         I   N=          46
           0           0           0           0           0           0
           0           0           0           0           0           0
           0           0           0           0           0           0
           0           0           0           0           0           0
           0           0           0           0           0           0
           0           0           0           0           0           0
           0           0           0           0           0           0
           0           0           0           0
Atom residue num                           I   N=          46
           0           0           0           0           0           0
           0           0           0           0           0           0
           0           0           0           0           0           0
           0           0           0           0           0           0
           0           0           0           0           0           0
           0           0           0           0           0           0
           0           0           0           0           0           0
           0           0           0           0
Nuclear spins                              I   N=          46
           0           0           0           0           0           0
           0           0           0           0           0           0
           0           0           0           0           0           0
           0           0           0           0           0           0
           0           0           0           0           0           0
           1           1           1           1           1           1
           1           1           1           1           1           1
           1           1           1           1
Nuclear ZEff                               R   N=          46
 -3.60000000E+00 -3.60000000E+00 -3.60000000E+00 -3.60000000E+00 -3.60000000E+00
 -3.60000000E+00 -3.60000000E+00 -3.60000000E+00 -3.60000000E+00 -3.60000000E+00
 -3.60000000E+00 -3.60000000E+00 -3.60000000E+00 -3.60000000E+00 -3.60000000E+00
 -3.60000000E+00 -3.60000000E+00 -3.60000000E+00 -3.60000000E+00 -3.60000000E+00
 -3.60000000E+00 -3.60000000E+00 -3.60000000E+00 -3.60000000E+00 -3.60000000E+00
 -3.60000000E+00 -3.60000000E+00 -3.60000000E+00 -3.60000000E+00 -3.60000000E+00
 -1.00000000E+00 -1.00000000E+00 -1.00000000E+00 -1.00000000E+00 -1.00000000E+00
 -1.00000000E+00 -1.00000000E+00 -1.00000000E+00 -1.00000000E+00 -1.00000000E+00
 -1.00000000E+00 -1.00000000E+00 -1.00000000E+00 -1.00000000E+00 -1.00000000E+00
 -1.00000000E+00
Nuclear ZNuc                               R   N=          46
  6.00000000E+00  6.00000000E+00  6.00000000E+00  6.00000000E+00  6.00000000E+00
  6.00000000E+00  6.00000000E+00  6.00000000E+00  6.00000000E+00  6.00000000E+00
  6.00000000E+00  6.00000000E+00  6.00000000E+00  6.00000000E+00  6.00000000E+00
  6.00000000E+00  6.00000000E+00  6.00000000E+00  6.00000000E+00  6.00000000E+00
  6.00000000E+00  6.00000000E+00  6.00000000E+00  6.00000000E+00  6.00000000E+00
  6.00000000E+00  6.00000000E+00  6.00000000E+00  6.00000000E+00  6.00000000E+00
  1.00000000E+00  1.00000000E+00  1.00000000E+00  1.00000000E+00  1.00000000E+00
  1.00000000E+00  1.00000000E+00  1.00000000E+00  1.00000000E+00  1.00000000E+00
  1.00000000E+00  1.00000000E+00  1.00000000E+00  1.00000000E+00  1.00000000E+00
  1.00000000E+00
Nuclear QMom                               R   N=          46
  0.00000000E+00  0.00000000E+00  0.00000000E+00  0.00000000E+00  0.00000000E+00
  0.00000000E+00  0.00000000E+00  0.00000000E+00  0.00000000E+00  0.00000000E+00
  0.00000000E+00  0.00000000E+00  0.00000000E+00  0.00000000E+00  0.00000000E+00
  0.00000000E+00  0.00000000E+00  0.00000000E+00  0.00000000E+00  0.00000000E+00
  0.00000000E+00  0.00000000E+00  0.00000000E+00  0.00000000E+00  0.00000000E+00
  0.00000000E+00  0.00000000E+00  0.00000000E+00  0.00000000E+00  0.00000000E+00
  0.00000000E+00  0.00000000E+00  0.00000000E+00  0.00000000E+00  0.00000000E+00
  0.00000000E+00  0.00000000E+00  0.00000000E+00  0.00000000E+00  0.00000000E+00
  0.00000000E+00  0.00000000E+00  0.00000000E+00  0.00000000E+00  0.00000000E+00
  0.00000000E+00
Nuclear GFac                               R   N=          46
  0.00000000E+00  0.00000000E+00  0.00000000E+00  0.00000000E+00  0.00000000E+00
  0.00000000E+00  0.00000000E+00  0.00000000E+00  0.00000000E+00  0.00000000E+00
  0.00000000E+00  0.00000000E+00  0.00000000E+00  0.00000000E+00  0.00000000E+00
  0.00000000E+00  0.00000000E+00  0.00000000E+00  0.00000000E+00  0.00000000E+00
  0.00000000E+00  0.00000000E+00  0.00000000E+00  0.00000000E+00  0.00000000E+00
  0.00000000E+00  0.00000000E+00  0.00000000E+00  0.00000000E+00  0.00000000E+00
  2.79284600E+00  2.79284600E+00  2.79284600E+00  2.79284600E+00  2.79284600E+00
  2.79284600E+00  2.79284600E+00  2.79284600E+00  2.79284600E+00  2.79284600E+00
  2.79284600E+00  2.79284600E+00  2.79284600E+00  2.79284600E+00  2.79284600E+00
  2.79284600E+00
MicOpt                                     I   N=          46
          -1          -1          -1          -1          -1          -1
          -1          -1          -1          -1          -1          -1
          -1          -1          -1          -1          -1          -1
          -1          -1          -1          -1          -1          -1
          -1          -1          -1          -1          -1          -1
          -1          -1          -1          -1          -1          -1
          -1          -1          -1          -1          -1          -1
          -1          -1          -1          -1
Number of contracted shells                I              182
Number of primitive shells                 I              514
Pure/Cartesian d shells                    I                0
Pure/Cartesian f shells                    I                0
Highest angular momentum                   I                1
Largest degree of contraction              I                7
Shell types                                I   N=         182
           0           0           0           1           1           0
           0           0           1           1           0           0
           0           1           1           0           0           0
           1           1           0           0           0           1
           1           0           0           0           1           1
           0           0           0           1           1           0
           0           0           1           1           0           0
           0           1           1           0           0           0
           1           1           0           0           0           1
           1           0           0           0           1           1
           0           0           0           1           1           0
           0           0           1           1           0           0
           0           1           1           0           0           0
           1           1           0           0           0           1
           1           0           0           0           1           1
           0           0           0           1           1           0
           0           0           1           1           0           0
           0           1           1           0           0           0
           1           1           0           0           0           1
           1           0           0           0           1           1
           0           0           0           1           1           0
           0           0           1           1           0           0
           0           1           1           0           0           0
           1           1           0           0           0           1
           1           0           0           0           1           1
           0           0           0           0           0           0
           0           0           0           0           0           0
           0           0           0           0           0           0
           0           0           0           0           0           0
           0           0           0           0           0           0
           0           0
Number of primitives per shell             I   N=         182
           7           2           1           4           1           7
           2           1           4           1           7           2
           1           4           1           7           2           1
           4           1           7           2           1           4
           1           7           2           1           4           1
           7           2           1           4           1           7
           2           1           4           1           7           2
           1           4           1           7           2           1
           4           1           7           2           1           4
           1           7           2           1           4           1
           7           2           1           4           1           7
           2           1           4           1           7           2
           1           4           1           7           2           1
           4           1           7           2           1           4
           1           7           2           1           4           1
           7           2           1           4           1           7
           2           1           4           1           7           2
           1           4           1           7           2           1
           4           1           7           2           1           4
           1           7           2           1           4           1
           7           2           1           4           1           7
           2           1           4           1           7           2
           1           4           1           7           2           1
           4           1           7           2           1           4
           1           7           2           1           4           1
           3           1           3           1           3           1
           3           1           3           1           3           1
           3           1           3           1           3           1
           3           1           3           1           3           1
           3           1           3           1           3           1
           3           1
Shell to atom map                          I   N=         182
           1           1           1           1           1           2
           2           2           2           2           3           3
           3           3           3           4           4           4
           4           4           5           5           5           5
           5           6           6           6           6           6
           7           7           7           7           7           8
           8           8           8           8           9           9
           9           9           9          10          10          10
          10          10          11          11          11          11
          11          12          12          12          12          12
          13          13          13          13          13          14
          14          14          14          14          15          15
          15          15          15          16          16          16
          16          16          17          17          17          17
          17          18          18          18          18          18
          19          19          19          19          19          20
          20          20          20          20          21          21
          21          21          21          22          22          22
          22          22          23          23          23          23
          23          24          24          24          24          24
          25          25          25          25          25          26
          26          26          26          26          27          27
          27          27          27          28          28          28
          28          28          29          29          29          29
          29          30          30          30          30          30
          31          31          32          32          33          33
          34          34          35          35          36          36
          37          37          38          38          39          39
          40          40          41          41          42          42
          43          43          44          44          45          45
          46          46
Primitive exponents                        R   N=         514
  4.23300000E+03  6.34900000E+02  1.46100000E+02  4.25000000E+01  1.41900000E+01
  5.14800000E+00  1.96700000E+00  5.14800000E+00  4.96200000E-01  1.53300000E-01
  1.81600000E+01  3.98600000E+00  1.14300000E+00  3.59400000E-01  1.14600000E-01
  4.23300000E+03  6.34900000E+02  1.46100000E+02  4.25000000E+01  1.41900000E+01
  5.14800000E+00  1.96700000E+00  5.14800000E+00  4.96200000E-01  1.53300000E-01
  1.81600000E+01  3.98600000E+00  1.14300000E+00  3.59400000E-01  1.14600000E-01
  4.23300000E+03  6.34900000E+02  1.46100000E+02  4.25000000E+01  1.41900000E+01
  5.14800000E+00  1.96700000E+00  5.14800000E+00  4.96200000E-01  1.53300000E-01
  1.81600000E+01  3.98600000E+00  1.14300000E+00  3.59400000E-01  1.14600000E-01
  4.23300000E+03  6.34900000E+02  1.46100000E+02  4.25000000E+01  1.41900000E+01
  5.14800000E+00  1.96700000E+00  5.14800000E+00  4.96200000E-01  1.53300000E-01
  1.81600000E+01  3.98600000E+00  1.14300000E+00  3.59400000E-01  1.14600000E-01
  4.23300000E+03  6.34900000E+02  1.46100000E+02  4.25000000E+01  1.41900000E+01
  5.14800000E+00  1.96700000E+00  5.14800000E+00  4.96200000E-01  1.53300000E-01
  1.81600000E+01  3.98600000E+00  1.14300000E+00  3.59400000E-01  1.14600000E-01
  4.23300000E+03  6.34900000E+02  1.46100000E+02  4.25000000E+01  1.41900000E+01
  5.14800000E+00  1.96700000E+00  5.14800000E+00  4.96200000E-01  1.53300000E-01
  1.81600000E+01  3.98600000E+00  1.14300000E+00  3.59400000E-01  1.14600000E-01
  4.23300000E+03  6.34900000E+02  1.46100000E+02  4.25000000E+01  1.41900000E+01
  5.14800000E+00  1.96700000E+00  5.14800000E+00  4.96200000E-01  1.53300000E-01
  1.81600000E+01  3.98600000E+00  1.14300000E+00  3.59400000E-01  1.14600000E-01
  4.23300000E+03  6.34900000E+02  1.46100000E+02  4.25000000E+01  1.41900000E+01
  5.14800000E+00  1.96700000E+00  5.14800000E+00  4.96200000E-01  1.53300000E-01
  1.81600000E+01  3.98600000E+00  1.14300000E+00  3.59400000E-01  1.14600000E-01
  4.23300000E+03  6.34900000E+02  1.46100000E+02  4.25000000E+01  1.41900000E+01
  5.14800000E+00  1.96700000E+00  5.14800000E+00  4.96200000E-01  1.53300000E-01
  1.81600000E+01  3.98600000E+00  1.14300000E+00  3.59400000E-01  1.14600000E-01
  4.23300000E+03  6.34900000E+02  1.46100000E+02  4.25000000E+01  1.41900000E+01
  5.14800000E+00  1.96700000E+00  5.14800000E+00  4.96200000E-01  1.53300000E-01
  1.81600000E+01  3.98600000E+00  1.14300000E+00  3.59400000E-01  1.14600000E-01
  4.23300000E+03  6.34900000E+02  1.46100000E+02  4.25000000E+01  1.41900000E+01
  5.14800000E+00  1.96700000E+00  5.14800000E+00  4.96200000E-01  1.53300000E-01
  1.81600000E+01  3.98600000E+00  1.14300000E+00  3.59400000E-01  1.14600000E-01
  4.23300000E+03  6.34900000E+02  1.46100000E+02  4.25000000E+01  1.41900000E+01
  5.14800000E+00  1.96700000E+00  5.14800000E+00  4.96200000E-01  1.53300000E-01
  1.81600000E+01  3.98600000E+00  1.14300000E+00  3.59400000E-01  1.14600000E-01
  4.23300000E+03  6.34900000E+02  1.46100000E+02  4.25000000E+01  1.41900000E+01
  5.14800000E+00  1.96700000E+00  5.14800000E+00  4.96200000E-01  1.53300000E-01
  1.81600000E+01  3.98600000E+00  1.14300000E+00  3.59400000E-01  1.14600000E-01
  4.23300000E+03  6.34900000E+02  1.46100000E+02  4.25000000E+01  1.41900000E+01
  5.14800000E+00  1.96700000E+00  5.14800000E+00  4.96200000E-01  1.53300000E-01
  1.81600000E+01  3.98600000E+00  1.14300000E+00  3.59400000E-01  1.14600000E-01
  4.23300000E+03  6.34900000E+02  1.46100000E+02  4.25000000E+01  1.41900000E+01
  5.14800000E+00  1.96700000E+00  5.14800000E+00  4.96200000E-01  1.53300000E-01
  1.81600000E+01  3.98600000E+00  1.14300000E+00  3.59400000E-01  1.14600000E-01
  4.23300000E+03  6.34900000E+02  1.46100000E+02  4.25000000E+01  1.41900000E+01
  5.14800000E+00  1.96700000E+00  5.14800000E+00  4.96200000E-01  1.53300000E-01
  1.81600000E+01  3.98600000E+00  1.14300000E+00  3.59400000E-01  1.14600000E-01
  4.23300000E+03  6.34900000E+02  1.46100000E+02  4.25000000E+01  1.41900000E+01
  5.14800000E+00  1.96700000E+00  5.14800000E+00  4.96200000E-01  1.53300000E-01
  1.81600000E+01  3.98600000E+00  1.14300000E+00  3.59400000E-01  1.14600000E-01
  4.23300000E+03  6.34900000E+02  1.46100000E+02  4.25000000E+01  1.41900000E+01
  5.14800000E+00  1.96700000E+00  5.14800000E+00  4.96200000E-01  1.53300000E-01
  1.81600000E+01  3.98600000E+00  1.14300000E+00  3.59400000E-01  1.14600000E-01
  4.23300000E+03  6.34900000E+02  1.46100000E+02  4.25000000E+01  1.41900000E+01
  5.14800000E+00  1.96700000E+00  5.14800000E+00  4.96200000E-01  1.53300000E-01
  1.81600000E+01  3.98600000E+00  1.14300000E+00  3.59400000E-01  1.14600000E-01
  4.23300000E+03  6.34900000E+02  1.46100000E+02  4.25000000E+01  1.41900000E+01
  5.14800000E+00  1.96700000E+00  5.14800000E+00  4.96200000E-01  1.53300000E-01
  1.81600000E+01  3.98600000E+00  1.14300000E+00  3.59400000E-01  1.14600000E-01
  4.23300000E+03  6.34900000E+02  1.46100000E+02  4.25000000E+01  1.41900000E+01
  5.14800000E+00  1.96700000E+00  5.14800000E+00  4.96200000E-01  1.53300000E-01
  1.81600000E+01  3.98600000E+00  1.14300000E+00  3.59400000E-01  1.14600000E-01
  4.23300000E+03  6.34900000E+02  1.46100000E+02  4.25000000E+01  1.41900000E+01
  5.14800000E+00  1.96700000E+00  5.14800000E+00  4.96200000E-01  1.53300000E-01
  1.81600000E+01  3.98600000E+00  1.14300000E+00  3.59400000E-01  1.14600000E-01
  4.23300000E+03  6.34900000E+02  1.46100000E+02  4.25000000E+01  1.41900000E+01
  5.14800000E+00  1.96700000E+00  5.14800000E+00  4.96200000E-01  1.53300000E-01
  1.81600000E+01  3.98600000E+00  1.14300000E+00  3.59400000E-01  1.14600000E-01
  4.23300000E+03  6.34900000E+02  1.46100000E+02  4.25000000E+01  1.41900000E+01
  5.14800000E+00  1.96700000E+00  5.14800000E+00  4.96200000E-01  1.53300000E-01
  1.81600000E+01  3.98600000E+00  1.14300000E+00  3.59400000E-01  1.14600000E-01
  4.23300000E+03  6.34900000E+02  1.46100000E+02  4.25000000E+01  1.41900000E+01
  5.14800000E+00  1.96700000E+00  5.14800000E+00  4.96200000E-01  1.53300000E-01
  1.81600000E+01  3.98600000E+00  1.14300000E+00  3.59400000E-01  1.14600000E-01
  4.23300000E+03  6.34900000E+02  1.46100000E+02  4.25000000E+01  1.41900000E+01
  5.14800000E+00  1.96700000E+00  5.14800000E+00  4.96200000E-01  1.53300000E-01
  1.81600000E+01  3.98600000E+00  1.14300000E+00  3.59400000E-01  1.14600000E-01
  4.23300000E+03  6.34900000E+02  1.46100000E+02  4.25000000E+01  1.41900000E+01
  5.14800000E+00  1.96700000E+00  5.14800000E+00  4.96200000E-01  1.53300000E-01
  1.81600000E+01  3.98600000E+00  1.14300000E+00  3.59400000E-01  1.14600000E-01
  4.23300000E+03  6.34900000E+02  1.46100000E+02  4.25000000E+01  1.41900000E+01
  5.14800000E+00  1.96700000E+00  5.14800000E+00  4.96200000E-01  1.53300000E-01
  1.81600000E+01  3.98600000E+00  1.14300000E+00  3.59400000E-01  1.14600000E-01
  4.23300000E+03  6.34900000E+02  1.46100000E+02  4.25000000E+01  1.41900000E+01
  5.14800000E+00  1.96700000E+00  5.14800000E+00  4.96200000E-01  1.53300000E-01
  1.81600000E+01  3.98600000E+00  1.14300000E+00  3.59400000E-01  1.14600000E-01
  4.23300000E+03  6.34900000E+02  1.46100000E+02  4.25000000E+01  1.41900000E+01
  5.14800000E+00  1.96700000E+00  5.14800000E+00  4.96200000E-01  1.53300000E-01
  1.81600000E+01  3.98600000E+00  1.14300000E+00  3.59400000E-01  1.14600000E-01
  1.92406000E+01  2.89920000E+00  6.53400000E-01  1.77600000E-01  1.92406000E+01
  2.89920000E+00  6.53400000E-01  1.77600000E-01  1.92406000E+01  2.89920000E+00
  6.53400000E-01  1.77600000E-01  1.92406000E+01  2.89920000E+00  6.53400000E-01
  1.77600000E-01  1.92406000E+01  2.89920000E+00  6.53400000E-01  1.77600000E-01
  1.92406000E+01  2.89920000E+00  6.53400000E-01  1.77600000E-01  1.92406000E+01
  2.89920000E+00  6.53400000E-01  1.77600000E-01  1.92406000E+01  2.89920000E+00
  6.53400000E-01  1.77600000E-01  1.92406000E+01  2.89920000E+00  6.53400000E-01
  1.77600000E-01  1.92406000E+01  2.89920000E+00  6.53400000E-01  1.77600000E-01
  1.92406000E+01  2.89920000E+00  6.53400000E-01  1.77600000E-01  1.92406000E+01
  2.89920000E+00  6.53400000E-01  1.77600000E-01  1.92406000E+01  2.89920000E+00
  6.53400000E-01  1.77600000E-01  1.92406000E+01  2.89920000E+00  6.53400000E-01
  1.77600000E-01  1.92406000E+01  2.89920000E+00  6.53400000E-01  1.77600000E-01
  1.92406000E+01  2.89920000E+00  6.53400000E-01  1.77600000E-01
Contraction coefficients                   R   N=         514
  1.21999969E-03  9.34199761E-03  4.54519884E-02  1.54656960E-01  3.58865908E-01
  4.38631888E-01  1.45917963E-01 -1.68366956E-01  1.06009072E+00  1.00000000E+00
  1.85389998E-02  1.15435999E-01  3.86187996E-01  6.40113993E-01  1.00000000E+00
  1.21999969E-03  9.34199761E-03  4.54519884E-02  1.54656960E-01  3.58865908E-01
  4.38631888E-01  1.45917963E-01 -1.68366956E-01  1.06009072E+00  1.00000000E+00
  1.85389998E-02  1.15435999E-01  3.86187996E-01  6.40113993E-01  1.00000000E+00
  1.21999969E-03  9.34199761E-03  4.54519884E-02  1.54656960E-01  3.58865908E-01
  4.38631888E-01  1.45917963E-01 -1.68366956E-01  1.06009072E+00  1.00000000E+00
  1.85389998E-02  1.15435999E-01  3.86187996E-01  6.40113993E-01  1.00000000E+00
  1.21999969E-03  9.34199761E-03  4.54519884E-02  1.54656960E-01  3.58865908E-01
  4.38631888E-01  1.45917963E-01 -1.68366956E-01  1.06009072E+00  1.00000000E+00
  1.85389998E-02  1.15435999E-01  3.86187996E-01  6.40113993E-01  1.00000000E+00